    -----------------------------------------------------------------------
          PSI4: An Open-Source Ab Initio Electronic Structure Package
                              PSI 4.0.0-beta5+ Driver

               Git: Rev {master} eab4c2bf53d0cfe2fa7ff775dfb81b740d89e238

    J. M. Turney, A. C. Simmonett, R. M. Parrish, E. G. Hohenstein,
    F. A. Evangelista, J. T. Fermann, B. J. Mintz, L. A. Burns, J. J. Wilke,
    M. L. Abrams, N. J. Russ, M. L. Leininger, C. L. Janssen, E. T. Seidl,
    W. D. Allen, H. F. Schaefer, R. A. King, E. F. Valeev, C. D. Sherrill,
    and T. D. Crawford, WIREs Comput. Mol. Sci. 2, 556-565 (2012)
    (doi: 10.1002/wcms.93)

                         Additional Contributions by
    A. E. DePrince, M. Saitow, U. Bozkaya, A. Yu. Sokolov
    -----------------------------------------------------------------------

    Process ID:  31067
    PSI4DATADIR: /home/wv111/local/share/psi/

    Using LocalCommunicator (Number of processes = 1)

    Memory level set to 256.000 MB

  ==> Input File <==

--------------------------------------------------------------------------
memory 3000 mb

molecule dimer {
  Ar
}


set basis cc-pVDZ
set reference uhf

# Initialize a blank dictionary of counterpoise corrected energies
# (Need this for the syntax below to work)
ecp = {}
energy('mp2')
--------------------------------------------------------------------------

  Memory set to   3.000 GiB by Python script.

  No DF_BASIS_SCF auxiliary basis selected, defaulting to cc-pvdz-jkfit


*** tstart() called on cx1-50-4-16.cx1.hpc.ic.ac.uk
*** at Mon Feb  3 22:22:49 2014

	There are an even number of electrons - assuming singlet.
	Specify the multiplicity with the MULTP option in the
	input if this is incorrect


         ---------------------------------------------------------
                                   SCF
            by Justin Turney, Rob Parrish, and Andy Simmonett
                              UHF Reference
                        1 Threads,   3000 MiB Core
         ---------------------------------------------------------

  ==> Geometry <==

    Molecular point group: d2h
    Geometry (in Angstrom), charge = 0, multiplicity = 1:

       Center              X                  Y                   Z       
    ------------   -----------------  -----------------  -----------------
          AR          0.000000000000     0.000000000000     0.000000000000

  Running in d2h symmetry.


	Rotational constants (cm^-1):
	A = **********    B = **********    C = **********  

	Rotational constants (MHz):
	A = **********    B = **********    C = **********  
  Nuclear repulsion =    0.000000000000000

  Charge       = 0
  Multiplicity = 1
  Electrons    = 18
  Nalpha       = 9
  Nbeta        = 9

  ==> Algorithm <==

  SCF Algorithm Type is DF.
  DIIS enabled.
  MOM disabled.
  Fractional occupation disabled.
  Guess Type is CORE.
  Energy threshold   = 1.00e-08
  Density threshold  = 1.00e-08
  Integral threshold = 0.00e+00

  ==> Primary Basis <==

  Basis Set: CC-PVDZ
    Number of shells: 8
    Number of basis function: 18
    Number of Cartesian functions: 19
    Spherical Harmonics?: true
    Max angular momentum: 2

  ==> Pre-Iterations <==

   -------------------------------------------------------
    Irrep   Nso     Nmo     Nalpha   Nbeta   Ndocc  Nsocc
   -------------------------------------------------------
     Ag         6       6       0       0       0       0
     B1g        1       1       0       0       0       0
     B2g        1       1       0       0       0       0
     B3g        1       1       0       0       0       0
     Au         0       0       0       0       0       0
     B1u        3       3       0       0       0       0
     B2u        3       3       0       0       0       0
     B3u        3       3       0       0       0       0
   -------------------------------------------------------
    Total      18      18       9       9       9       0
   -------------------------------------------------------

 OEINTS: Wrapper to libmints.
   by Justin Turney

   Calculation information:
      Number of atoms:                   1
      Number of AO shells:               8
      Number of SO shells:               8
      Number of primitives:             50
      Number of atomic orbitals:        19
      Number of basis functions:        18

      Number of irreps:                  8
      Number of functions per irrep: [   6    1    1    1    0    3    3    3 ]

      Overlap, kinetic, potential, dipole, and quadrupole integrals
        stored in file 35.

  ==> Integral Setup <==

  ==> DFJK: Density-Fitted J/K Matrices <==

    J tasked:                  Yes
    K tasked:                  Yes
    wK tasked:                  No
    OpenMP threads:              1
    Integrals threads:           1
    Memory (MB):              2145
    Algorithm:                Core
    Integral Cache:           NONE
    Schwarz Cutoff:          1E-12
    Fitting Condition:       1E-12

   => Auxiliary Basis Set <=

  Basis Set: cc-pvdz-jkfit
    Number of shells: 36
    Number of basis function: 112
    Number of Cartesian functions: 130
    Spherical Harmonics?: true
    Max angular momentum: 3

  Minimum eigenvalue in the overlap matrix is 1.1016109502E-01.
  Using Symmetric Orthogonalization.
  SCF Guess: Core (One-Electron) Hamiltonian.

  ==> Iterations <==

                           Total Energy        Delta E     RMS |[F,P]|

   @DF-UHF iter   1:  -523.38229308648260   -5.23382e+02   2.06743e-01 
   @DF-UHF iter   2:  -526.68798296484920   -3.30569e+00   6.85353e-02 DIIS
   @DF-UHF iter   3:  -526.79853916161483   -1.10556e-01   6.77350e-03 DIIS
   @DF-UHF iter   4:  -526.79985534241837   -1.31618e-03   7.83609e-04 DIIS
   @DF-UHF iter   5:  -526.79986787621533   -1.25338e-05   1.26119e-04 DIIS
   @DF-UHF iter   6:  -526.79986827914593   -4.02931e-07   1.02173e-06 DIIS
   @DF-UHF iter   7:  -526.79986827915286   -6.93490e-12   1.49831e-08 DIIS
   @DF-UHF iter   8:  -526.79986827915263    2.27374e-13   7.24451e-11 DIIS

  ==> Post-Iterations <==

   @Spin Contamination Metric:   1.065814104E-14
   @S^2 Expected:                0.000000000E+00
   @S^2 Observed:                1.065814104E-14
   @S   Expected:                0.000000000E+00
   @S   Observed:                0.000000000E+00

	Orbital Energies (a.u.)
	-----------------------

	Alpha Occupied:                                                       

	   1Ag  -118.606289     2Ag   -12.317786     1B2u   -9.566314  
	   1B3u   -9.566314     1B1u   -9.566314     3Ag    -1.274392  
	   2B2u   -0.588024     2B1u   -0.588024     2B3u   -0.588024  

	Alpha Virtual:                                                        

	   3B1u    0.797264     3B2u    0.797264     3B3u    0.797264  
	   4Ag     0.959750     1B1g    1.108403     1B2g    1.108403  
	   1B3g    1.108403     5Ag     1.108403     6Ag     1.108403  

	Beta Occupied:                                                        

	   1Ag  -118.606289     2Ag   -12.317786     1B2u   -9.566314  
	   1B3u   -9.566314     1B1u   -9.566314     3Ag    -1.274392  
	   2B2u   -0.588024     2B1u   -0.588024     2B3u   -0.588024  

	Beta Virtual:                                                         

	   3B1u    0.797264     3B2u    0.797264     3B3u    0.797264  
	   4Ag     0.959750     1B1g    1.108403     1B2g    1.108403  
	   1B3g    1.108403     5Ag     1.108403     6Ag     1.108403  

	Final Occupation by Irrep:
	         Ag   B1g   B2g   B3g    Au   B1u   B2u   B3u 
	DOCC [     3,    0,    0,    0,    0,    2,    2,    2 ]
	SOCC [     0,    0,    0,    0,    0,    0,    0,    0 ]

  Energy converged.

  @DF-UHF Final Energy:  -526.79986827915263

   => Energetics <=

    Nuclear Repulsion Energy =              0.0000000000000000
    One-Electron Energy =                -728.2767716859010534
    Two-Electron Energy =                 201.4769034067483915
    DFT Exchange-Correlation Energy =       0.0000000000000000
    Empirical Dispersion Energy =           0.0000000000000000
    Total Energy =                       -526.7998682791526335



Properties will be evaluated at   0.000000,   0.000000,   0.000000 Bohr
  ==> Properties <==


Properties computed using the SCF density density matrix
  Nuclear Dipole Moment: (a.u.)
     X:     0.0000      Y:     0.0000      Z:     0.0000

  Electronic Dipole Moment: (a.u.)
     X:     0.0000      Y:     0.0000      Z:     0.0000

  Dipole Moment: (a.u.)
     X:     0.0000      Y:     0.0000      Z:     0.0000     Total:     0.0000

  Dipole Moment: (Debye)
     X:     0.0000      Y:     0.0000      Z:     0.0000     Total:     0.0000


  Saving occupied orbitals to File 180.

*** tstop() called on cx1-50-4-16.cx1.hpc.ic.ac.uk at Mon Feb  3 22:22:52 2014
Module time:
	user time   =       0.14 seconds =       0.00 minutes
	system time =       0.01 seconds =       0.00 minutes
	total time  =          3 seconds =       0.05 minutes
Total time:
	user time   =       0.14 seconds =       0.00 minutes
	system time =       0.01 seconds =       0.00 minutes
	total time  =          3 seconds =       0.05 minutes

  //>>>>>>>>>>>>>>>>>>>>>>>>>>>>>>>>>>>//
  //               DFMP2               //
  //<<<<<<<<<<<<<<<<<<<<<<<<<<<<<<<<<<<//

  No DF_BASIS_MP2 auxiliary basis selected, defaulting to cc-pvdz-ri

*** tstart() called on cx1-50-4-16.cx1.hpc.ic.ac.uk
*** at Mon Feb  3 22:22:52 2014

	 --------------------------------------------------------
	                          DF-MP2                         
	      2nd-Order Density-Fitted Moller-Plesset Theory     
	              UMP2 Wavefunction,   1 Threads             
	                                                         
	        Rob Parrish, Justin Turney, Andy Simmonett,      
	           Ed Hohenstein, and C. David Sherrill          
	 --------------------------------------------------------

	 --------------------------------------------------------
	                 NBF =    18, NAUX =    76
	 --------------------------------------------------------
	   CLASS    FOCC     OCC    AOCC    AVIR     VIR    FVIR
	   ALPHA       0       9       9       9       9       0
	    BETA       0       9       9       9       9       0
	 --------------------------------------------------------

	----------------------------------------------------------
	 ==================> DF-MP2 Energies <=================== 
	----------------------------------------------------------
	 Reference Energy          =    -526.7998682791526335 [H]
	 Singles Energy            =      -0.0000000000000000 [H]
	 Same-Spin Energy          =      -0.0403021427261389 [H]
	 Opposite-Spin Energy      =      -0.1052838436972492 [H]
	 Correlation Energy        =      -0.1455859864233881 [H]
	 Total Energy              =    -526.9454542655760179 [H]
	----------------------------------------------------------
	 ================> DF-SCS-MP2 Energies <================= 
	----------------------------------------------------------
	 SCS Same-Spin Scale       =       0.3333333333333333 [-]
	 SCS Opposite-Spin Scale   =       1.2000000000000000 [-]
	 SCS Same-Spin Energy      =      -0.0134340475753796 [H]
	 SCS Opposite-Spin Energy  =      -0.1263406124366990 [H]
	 SCS Correlation Energy    =      -0.1397746600120787 [H]
	 SCS Total Energy          =    -526.9396429391647416 [H]
	----------------------------------------------------------


*** tstop() called on cx1-50-4-16.cx1.hpc.ic.ac.uk at Mon Feb  3 22:22:53 2014
Module time:
	user time   =       0.10 seconds =       0.00 minutes
	system time =       0.01 seconds =       0.00 minutes
	total time  =          1 seconds =       0.02 minutes
Total time:
	user time   =       0.24 seconds =       0.00 minutes
	system time =       0.02 seconds =       0.00 minutes
	total time  =          4 seconds =       0.07 minutes

*** PSI4 exiting successfully. Buy a developer a beer!
