    -----------------------------------------------------------------------
          PSI4: An Open-Source Ab Initio Electronic Structure Package
                              PSI 4.0.0-beta5+ Driver

               Git: Rev {master} eab4c2bf53d0cfe2fa7ff775dfb81b740d89e238

    J. M. Turney, A. C. Simmonett, R. M. Parrish, E. G. Hohenstein,
    F. A. Evangelista, J. T. Fermann, B. J. Mintz, L. A. Burns, J. J. Wilke,
    M. L. Abrams, N. J. Russ, M. L. Leininger, C. L. Janssen, E. T. Seidl,
    W. D. Allen, H. F. Schaefer, R. A. King, E. F. Valeev, C. D. Sherrill,
    and T. D. Crawford, WIREs Comput. Mol. Sci. 2, 556-565 (2012)
    (doi: 10.1002/wcms.93)

                         Additional Contributions by
    A. E. DePrince, M. Saitow, U. Bozkaya, A. Yu. Sokolov
    -----------------------------------------------------------------------

    Process ID:  18972
    PSI4DATADIR: /home/wv111/local/share/psi/

    Using LocalCommunicator (Number of processes = 1)

    Memory level set to 256.000 MB

  ==> Input File <==

--------------------------------------------------------------------------
import numpy as np

memory 3000 mb

molecule dimer {
  Ar
--
  Ar 1 R
}

rvals = np.linspace(3.5, 7, num=16)

set basis cc-pVDZ
set reference uhf

# Initialize a blank dictionary of counterpoise corrected energies
# (Need this for the syntax below to work)
ecp = {}

for R in rvals:
  dimer.R = R
  energy('mp2')
--------------------------------------------------------------------------

  Memory set to   3.000 GiB by Python script.
Setting geometry variable R to 3.500000

  No DF_BASIS_SCF auxiliary basis selected, defaulting to cc-pvdz-jkfit


*** tstart() called on cx1-12-6-2.cx1.hpc.ic.ac.uk
*** at Tue Feb  4 11:31:25 2014

	There are an even number of electrons - assuming singlet.
	Specify the multiplicity with the MULTP option in the
	input if this is incorrect


         ---------------------------------------------------------
                                   SCF
            by Justin Turney, Rob Parrish, and Andy Simmonett
                              UHF Reference
                        1 Threads,   3000 MiB Core
         ---------------------------------------------------------

  ==> Geometry <==

    Molecular point group: d2h
    Full point group: D_inf_h

    Geometry (in Angstrom), charge = 0, multiplicity = 1:

       Center              X                  Y                   Z       
    ------------   -----------------  -----------------  -----------------
          AR          0.000000000000     0.000000000000    -1.750000000000
          AR          0.000000000000     0.000000000000     1.750000000000

  Running in d2h symmetry.


	Rotational constants (cm^-1):
	A = **********    B =    0.06887   C =    0.06887

	Rotational constants (MHz):
	A = **********    B = 2064.71315   C = 2064.71315
  Nuclear repulsion =   48.986690166617151

  Charge       = 0
  Multiplicity = 1
  Electrons    = 36
  Nalpha       = 18
  Nbeta        = 18

  ==> Algorithm <==

  SCF Algorithm Type is DF.
  DIIS enabled.
  MOM disabled.
  Fractional occupation disabled.
  Guess Type is CORE.
  Energy threshold   = 1.00e-08
  Density threshold  = 1.00e-08
  Integral threshold = 0.00e+00

  ==> Primary Basis <==

  Basis Set: CC-PVDZ
    Number of shells: 16
    Number of basis function: 36
    Number of Cartesian functions: 38
    Spherical Harmonics?: true
    Max angular momentum: 2

  ==> Pre-Iterations <==

   -------------------------------------------------------
    Irrep   Nso     Nmo     Nalpha   Nbeta   Ndocc  Nsocc
   -------------------------------------------------------
     Ag         9       9       0       0       0       0
     B1g        1       1       0       0       0       0
     B2g        4       4       0       0       0       0
     B3g        4       4       0       0       0       0
     Au         1       1       0       0       0       0
     B1u        9       9       0       0       0       0
     B2u        4       4       0       0       0       0
     B3u        4       4       0       0       0       0
   -------------------------------------------------------
    Total      36      36      18      18      18       0
   -------------------------------------------------------

 OEINTS: Wrapper to libmints.
   by Justin Turney

   Calculation information:
      Number of atoms:                   2
      Number of AO shells:              16
      Number of SO shells:               8
      Number of primitives:            100
      Number of atomic orbitals:        38
      Number of basis functions:        36

      Number of irreps:                  8
      Number of functions per irrep: [   9    1    4    4    1    9    4    4 ]

      Overlap, kinetic, potential, dipole, and quadrupole integrals
        stored in file 35.

  ==> Integral Setup <==

  ==> DFJK: Density-Fitted J/K Matrices <==

    J tasked:                  Yes
    K tasked:                  Yes
    wK tasked:                  No
    OpenMP threads:              1
    Integrals threads:           1
    Memory (MB):              2145
    Algorithm:                Core
    Integral Cache:           NONE
    Schwarz Cutoff:          1E-12
    Fitting Condition:       1E-12

   => Auxiliary Basis Set <=

  Basis Set: cc-pvdz-jkfit
    Number of shells: 72
    Number of basis function: 224
    Number of Cartesian functions: 260
    Spherical Harmonics?: true
    Max angular momentum: 3

  Minimum eigenvalue in the overlap matrix is 1.0748225659E-01.
  Using Symmetric Orthogonalization.
  SCF Guess: Core (One-Electron) Hamiltonian.

  ==> Iterations <==

                           Total Energy        Delta E     RMS |[F,P]|

   @DF-UHF iter   1: -1046.63087836338059   -1.04663e+03   1.62679e-01 
   @DF-UHF iter   2: -1053.36095948617526   -6.73008e+00   5.32371e-02 DIIS
   @DF-UHF iter   3: -1053.59603301452262   -2.35074e-01   5.25047e-03 DIIS
   @DF-UHF iter   4: -1053.59883656030547   -2.80355e-03   6.24707e-04 DIIS
   @DF-UHF iter   5: -1053.59887011850583   -3.35582e-05   1.08547e-04 DIIS
   @DF-UHF iter   6: -1053.59887102157654   -9.03071e-07   1.43073e-05 DIIS
   @DF-UHF iter   7: -1053.59887104173026   -2.01537e-08   4.43873e-07 DIIS
   @DF-UHF iter   8: -1053.59887104176664   -3.63798e-11   8.81827e-08 DIIS
   @DF-UHF iter   9: -1053.59887104176823   -1.59162e-12   7.42406e-09 DIIS

  ==> Post-Iterations <==

   @Spin Contamination Metric:  -3.552713679E-15
   @S^2 Expected:                0.000000000E+00
   @S^2 Observed:               -3.552713679E-15
   @S   Expected:                0.000000000E+00
   @S   Observed:                0.000000000E+00

	Orbital Energies (a.u.)
	-----------------------

	Alpha Occupied:                                                       

	   1B1u -118.605677     1Ag  -118.605677     2B1u  -12.317299  
	   2Ag   -12.317289     3B1u   -9.565822     3Ag    -9.565819  
	   1B2g   -9.565815     1B3g   -9.565815     1B3u   -9.565814  
	   1B2u   -9.565814     4Ag    -1.275721     4B1u   -1.272788  
	   5Ag    -0.599977     2B3u   -0.589578     2B2u   -0.589578  
	   2B2g   -0.586106     2B3g   -0.586106     5B1u   -0.575877  

	Alpha Virtual:                                                        

	   6Ag     0.703473     3B2u    0.776241     3B3u    0.776241  
	   3B3g    0.819309     3B2g    0.819309     6B1u    0.869522  
	   7Ag     0.948556     7B1u    1.034961     8B1u    1.108592  
	   1Au     1.108592     8Ag     1.108599     1B1g    1.108599  
	   4B2u    1.108616     4B3u    1.108616     4B3g    1.108779  
	   4B2g    1.108779     9Ag     1.110701     9B1u    1.124540  

	Beta Occupied:                                                        

	   1B1u -118.605677     1Ag  -118.605677     2B1u  -12.317299  
	   2Ag   -12.317289     3B1u   -9.565822     3Ag    -9.565819  
	   1B2g   -9.565815     1B3g   -9.565815     1B3u   -9.565814  
	   1B2u   -9.565814     4Ag    -1.275721     4B1u   -1.272788  
	   5Ag    -0.599977     2B3u   -0.589578     2B2u   -0.589578  
	   2B2g   -0.586106     2B3g   -0.586106     5B1u   -0.575877  

	Beta Virtual:                                                         

	   6Ag     0.703473     3B2u    0.776241     3B3u    0.776241  
	   3B3g    0.819309     3B2g    0.819309     6B1u    0.869522  
	   7Ag     0.948556     7B1u    1.034961     8B1u    1.108592  
	   1Au     1.108592     8Ag     1.108599     1B1g    1.108599  
	   4B2u    1.108616     4B3u    1.108616     4B3g    1.108779  
	   4B2g    1.108779     9Ag     1.110701     9B1u    1.124540  

	Final Occupation by Irrep:
	         Ag   B1g   B2g   B3g    Au   B1u   B2u   B3u 
	DOCC [     5,    0,    2,    2,    0,    5,    2,    2 ]
	SOCC [     0,    0,    0,    0,    0,    0,    0,    0 ]

  Energy converged.

  @DF-UHF Final Energy: -1053.59887104176823

   => Energetics <=

    Nuclear Repulsion Energy =             48.9866901666171515
    One-Electron Energy =               -1554.5379827765691516
    Two-Electron Energy =                 451.9524215681838086
    DFT Exchange-Correlation Energy =       0.0000000000000000
    Empirical Dispersion Energy =           0.0000000000000000
    Total Energy =                      -1053.5988710417682341



Properties will be evaluated at   0.000000,   0.000000,   0.000000 Bohr
  ==> Properties <==


Properties computed using the SCF density density matrix
  Nuclear Dipole Moment: (a.u.)
     X:     0.0000      Y:     0.0000      Z:    -0.0000

  Electronic Dipole Moment: (a.u.)
     X:     0.0000      Y:     0.0000      Z:     0.0000

  Dipole Moment: (a.u.)
     X:     0.0000      Y:     0.0000      Z:    -0.0000     Total:     0.0000

  Dipole Moment: (Debye)
     X:     0.0000      Y:     0.0000      Z:    -0.0000     Total:     0.0000


  Saving occupied orbitals to File 180.

*** tstop() called on cx1-12-6-2.cx1.hpc.ic.ac.uk at Tue Feb  4 11:31:26 2014
Module time:
	user time   =       0.48 seconds =       0.01 minutes
	system time =       0.01 seconds =       0.00 minutes
	total time  =          1 seconds =       0.02 minutes
Total time:
	user time   =       0.48 seconds =       0.01 minutes
	system time =       0.01 seconds =       0.00 minutes
	total time  =          1 seconds =       0.02 minutes

  //>>>>>>>>>>>>>>>>>>>>>>>>>>>>>>>>>>>//
  //               DFMP2               //
  //<<<<<<<<<<<<<<<<<<<<<<<<<<<<<<<<<<<//

  No DF_BASIS_MP2 auxiliary basis selected, defaulting to cc-pvdz-ri

*** tstart() called on cx1-12-6-2.cx1.hpc.ic.ac.uk
*** at Tue Feb  4 11:31:26 2014

	 --------------------------------------------------------
	                          DF-MP2                         
	      2nd-Order Density-Fitted Moller-Plesset Theory     
	              UMP2 Wavefunction,   1 Threads             
	                                                         
	        Rob Parrish, Justin Turney, Andy Simmonett,      
	           Ed Hohenstein, and C. David Sherrill          
	 --------------------------------------------------------

	 --------------------------------------------------------
	                 NBF =    36, NAUX =   152
	 --------------------------------------------------------
	   CLASS    FOCC     OCC    AOCC    AVIR     VIR    FVIR
	   ALPHA       0      18      18      18      18       0
	    BETA       0      18      18      18      18       0
	 --------------------------------------------------------

	----------------------------------------------------------
	 ==================> DF-MP2 Energies <=================== 
	----------------------------------------------------------
	 Reference Energy          =   -1053.5988710417682341 [H]
	 Singles Energy            =      -0.0000000000000008 [H]
	 Same-Spin Energy          =      -0.0808148908352493 [H]
	 Opposite-Spin Energy      =      -0.2108189067937890 [H]
	 Correlation Energy        =      -0.2916337976290391 [H]
	 Total Energy              =   -1053.8905048393971811 [H]
	----------------------------------------------------------
	 ================> DF-SCS-MP2 Energies <================= 
	----------------------------------------------------------
	 SCS Same-Spin Scale       =       0.3333333333333333 [-]
	 SCS Opposite-Spin Scale   =       1.2000000000000000 [-]
	 SCS Same-Spin Energy      =      -0.0269382969450831 [H]
	 SCS Opposite-Spin Energy  =      -0.2529826881525468 [H]
	 SCS Correlation Energy    =      -0.2799209850976306 [H]
	 SCS Total Energy          =   -1053.8787920268657672 [H]
	----------------------------------------------------------


*** tstop() called on cx1-12-6-2.cx1.hpc.ic.ac.uk at Tue Feb  4 11:31:26 2014
Module time:
	user time   =       0.33 seconds =       0.01 minutes
	system time =       0.01 seconds =       0.00 minutes
	total time  =          0 seconds =       0.00 minutes
Total time:
	user time   =       0.81 seconds =       0.01 minutes
	system time =       0.02 seconds =       0.00 minutes
	total time  =          1 seconds =       0.02 minutes
Setting geometry variable R to 3.733333

  No DF_BASIS_SCF auxiliary basis selected, defaulting to cc-pvdz-jkfit


*** tstart() called on cx1-12-6-2.cx1.hpc.ic.ac.uk
*** at Tue Feb  4 11:31:26 2014

	There are an even number of electrons - assuming singlet.
	Specify the multiplicity with the MULTP option in the
	input if this is incorrect


         ---------------------------------------------------------
                                   SCF
            by Justin Turney, Rob Parrish, and Andy Simmonett
                              UHF Reference
                        1 Threads,   3000 MiB Core
         ---------------------------------------------------------

  ==> Geometry <==

    Molecular point group: d2h
    Full point group: D_inf_h

    Geometry (in Angstrom), charge = 0, multiplicity = 1:

       Center              X                  Y                   Z       
    ------------   -----------------  -----------------  -----------------
          AR          0.000000000000     0.000000000000    -1.866666666667
          AR          0.000000000000     0.000000000000     1.866666666667

  Running in d2h symmetry.


	Rotational constants (cm^-1):
	A = **********    B =    0.06053   C =    0.06053

	Rotational constants (MHz):
	A = **********    B = 1814.68929   C = 1814.68929
  Nuclear repulsion =   45.925022031203568

  Charge       = 0
  Multiplicity = 1
  Electrons    = 36
  Nalpha       = 18
  Nbeta        = 18

  ==> Algorithm <==

  SCF Algorithm Type is DF.
  DIIS enabled.
  MOM disabled.
  Fractional occupation disabled.
  Guess Type is CORE.
  Energy threshold   = 1.00e-08
  Density threshold  = 1.00e-08
  Integral threshold = 0.00e+00

  ==> Primary Basis <==

  Basis Set: CC-PVDZ
    Number of shells: 16
    Number of basis function: 36
    Number of Cartesian functions: 38
    Spherical Harmonics?: true
    Max angular momentum: 2

  ==> Pre-Iterations <==

   -------------------------------------------------------
    Irrep   Nso     Nmo     Nalpha   Nbeta   Ndocc  Nsocc
   -------------------------------------------------------
     Ag         9       9       0       0       0       0
     B1g        1       1       0       0       0       0
     B2g        4       4       0       0       0       0
     B3g        4       4       0       0       0       0
     Au         1       1       0       0       0       0
     B1u        9       9       0       0       0       0
     B2u        4       4       0       0       0       0
     B3u        4       4       0       0       0       0
   -------------------------------------------------------
    Total      36      36      18      18      18       0
   -------------------------------------------------------

 OEINTS: Wrapper to libmints.
   by Justin Turney

   Calculation information:
      Number of atoms:                   2
      Number of AO shells:              16
      Number of SO shells:               8
      Number of primitives:            100
      Number of atomic orbitals:        38
      Number of basis functions:        36

      Number of irreps:                  8
      Number of functions per irrep: [   9    1    4    4    1    9    4    4 ]

      Overlap, kinetic, potential, dipole, and quadrupole integrals
        stored in file 35.

  ==> Integral Setup <==

  ==> DFJK: Density-Fitted J/K Matrices <==

    J tasked:                  Yes
    K tasked:                  Yes
    wK tasked:                  No
    OpenMP threads:              1
    Integrals threads:           1
    Memory (MB):              2145
    Algorithm:                Core
    Integral Cache:           NONE
    Schwarz Cutoff:          1E-12
    Fitting Condition:       1E-12

   => Auxiliary Basis Set <=

  Basis Set: cc-pvdz-jkfit
    Number of shells: 72
    Number of basis function: 224
    Number of Cartesian functions: 260
    Spherical Harmonics?: true
    Max angular momentum: 3

  Minimum eigenvalue in the overlap matrix is 1.0889821760E-01.
  Using Symmetric Orthogonalization.
  SCF Guess: Core (One-Electron) Hamiltonian.

  ==> Iterations <==

                           Total Energy        Delta E     RMS |[F,P]|

   @DF-UHF iter   1: -1046.66813281406962   -1.04667e+03   1.61231e-01 
   @DF-UHF iter   2: -1053.36456700282656   -6.69643e+00   5.29749e-02 DIIS
   @DF-UHF iter   3: -1053.59663519372089   -2.32068e-01   5.23605e-03 DIIS
   @DF-UHF iter   4: -1053.59940650587009   -2.77131e-03   6.27832e-04 DIIS
   @DF-UHF iter   5: -1053.59943961812701   -3.31123e-05   1.07105e-04 DIIS
   @DF-UHF iter   6: -1053.59944049341789   -8.75291e-07   1.36359e-05 DIIS
   @DF-UHF iter   7: -1053.59944051167827   -1.82604e-08   3.94999e-07 DIIS
   @DF-UHF iter   8: -1053.59944051170623   -2.79670e-11   8.01555e-08 DIIS
   @DF-UHF iter   9: -1053.59944051170692   -6.82121e-13   6.49124e-09 DIIS

  ==> Post-Iterations <==

   @Spin Contamination Metric:   3.552713679E-15
   @S^2 Expected:                0.000000000E+00
   @S^2 Observed:                3.552713679E-15
   @S   Expected:                0.000000000E+00
   @S   Observed:                0.000000000E+00

	Orbital Energies (a.u.)
	-----------------------

	Alpha Occupied:                                                       

	   1B1u -118.606034     1Ag  -118.606034     2B1u  -12.317589  
	   2Ag   -12.317583     3B1u   -9.566115     3Ag    -9.566112  
	   1B3g   -9.566111     1B2g   -9.566111     1B2u   -9.566110  
	   1B3u   -9.566110     4Ag    -1.275113     4B1u   -1.273546  
	   5Ag    -0.595758     2B2u   -0.588971     2B3u   -0.588971  
	   2B3g   -0.586928     2B2g   -0.586928     5B1u   -0.580176  

	Alpha Virtual:                                                        

	   6Ag     0.715651     3B2u    0.782999     3B3u    0.782999  
	   3B3g    0.811974     3B2g    0.811974     6B1u    0.869399  
	   7Ag     0.951959     7B1u    1.003506     8B1u    1.108474  
	   1Au     1.108474     1B1g    1.108480     8Ag     1.108480  
	   4B2u    1.108488     4B3u    1.108488     4B3g    1.108518  
	   4B2g    1.108518     9Ag     1.109251     9B1u    1.111832  

	Beta Occupied:                                                        

	   1B1u -118.606034     1Ag  -118.606034     2B1u  -12.317589  
	   2Ag   -12.317583     3B1u   -9.566115     3Ag    -9.566112  
	   1B3g   -9.566111     1B2g   -9.566111     1B2u   -9.566110  
	   1B3u   -9.566110     4Ag    -1.275113     4B1u   -1.273546  
	   5Ag    -0.595758     2B2u   -0.588971     2B3u   -0.588971  
	   2B3g   -0.586928     2B2g   -0.586928     5B1u   -0.580176  

	Beta Virtual:                                                         

	   6Ag     0.715651     3B2u    0.782999     3B3u    0.782999  
	   3B3g    0.811974     3B2g    0.811974     6B1u    0.869399  
	   7Ag     0.951959     7B1u    1.003506     8B1u    1.108474  
	   1Au     1.108474     1B1g    1.108480     8Ag     1.108480  
	   4B2u    1.108488     4B3u    1.108488     4B3g    1.108518  
	   4B2g    1.108518     9Ag     1.109251     9B1u    1.111832  

	Final Occupation by Irrep:
	         Ag   B1g   B2g   B3g    Au   B1u   B2u   B3u 
	DOCC [     5,    0,    2,    2,    0,    5,    2,    2 ]
	SOCC [     0,    0,    0,    0,    0,    0,    0,    0 ]

  Energy converged.

  @DF-UHF Final Energy: -1053.59944051170692

   => Energetics <=

    Nuclear Repulsion Energy =             45.9250220312035680
    One-Electron Energy =               -1548.4083302482156341
    Two-Electron Energy =                 448.8838677053050787
    DFT Exchange-Correlation Energy =       0.0000000000000000
    Empirical Dispersion Energy =           0.0000000000000000
    Total Energy =                      -1053.5994405117071437



Properties will be evaluated at   0.000000,   0.000000,   0.000000 Bohr
  ==> Properties <==


Properties computed using the SCF density density matrix
  Nuclear Dipole Moment: (a.u.)
     X:     0.0000      Y:     0.0000      Z:     0.0000

  Electronic Dipole Moment: (a.u.)
     X:     0.0000      Y:     0.0000      Z:     0.0000

  Dipole Moment: (a.u.)
     X:     0.0000      Y:     0.0000      Z:     0.0000     Total:     0.0000

  Dipole Moment: (Debye)
     X:     0.0000      Y:     0.0000      Z:     0.0000     Total:     0.0000


  Saving occupied orbitals to File 180.

*** tstop() called on cx1-12-6-2.cx1.hpc.ic.ac.uk at Tue Feb  4 11:31:28 2014
Module time:
	user time   =       0.48 seconds =       0.01 minutes
	system time =       0.01 seconds =       0.00 minutes
	total time  =          2 seconds =       0.03 minutes
Total time:
	user time   =       1.31 seconds =       0.02 minutes
	system time =       0.03 seconds =       0.00 minutes
	total time  =          3 seconds =       0.05 minutes

  //>>>>>>>>>>>>>>>>>>>>>>>>>>>>>>>>>>>//
  //               DFMP2               //
  //<<<<<<<<<<<<<<<<<<<<<<<<<<<<<<<<<<<//

  No DF_BASIS_MP2 auxiliary basis selected, defaulting to cc-pvdz-ri

*** tstart() called on cx1-12-6-2.cx1.hpc.ic.ac.uk
*** at Tue Feb  4 11:31:28 2014

	 --------------------------------------------------------
	                          DF-MP2                         
	      2nd-Order Density-Fitted Moller-Plesset Theory     
	              UMP2 Wavefunction,   1 Threads             
	                                                         
	        Rob Parrish, Justin Turney, Andy Simmonett,      
	           Ed Hohenstein, and C. David Sherrill          
	 --------------------------------------------------------

	 --------------------------------------------------------
	                 NBF =    36, NAUX =   152
	 --------------------------------------------------------
	   CLASS    FOCC     OCC    AOCC    AVIR     VIR    FVIR
	   ALPHA       0      18      18      18      18       0
	    BETA       0      18      18      18      18       0
	 --------------------------------------------------------

	----------------------------------------------------------
	 ==================> DF-MP2 Energies <=================== 
	----------------------------------------------------------
	 Reference Energy          =   -1053.5994405117069164 [H]
	 Singles Energy            =      -0.0000000000000005 [H]
	 Same-Spin Energy          =      -0.0807323427975147 [H]
	 Opposite-Spin Energy      =      -0.2107194060090853 [H]
	 Correlation Energy        =      -0.2914517488066006 [H]
	 Total Energy              =   -1053.8908922605135103 [H]
	----------------------------------------------------------
	 ================> DF-SCS-MP2 Energies <================= 
	----------------------------------------------------------
	 SCS Same-Spin Scale       =       0.3333333333333333 [-]
	 SCS Opposite-Spin Scale   =       1.2000000000000000 [-]
	 SCS Same-Spin Energy      =      -0.0269107809325049 [H]
	 SCS Opposite-Spin Energy  =      -0.2528632872109024 [H]
	 SCS Correlation Energy    =      -0.2797740681434078 [H]
	 SCS Total Energy          =   -1053.8792145798502133 [H]
	----------------------------------------------------------


*** tstop() called on cx1-12-6-2.cx1.hpc.ic.ac.uk at Tue Feb  4 11:31:28 2014
Module time:
	user time   =       0.33 seconds =       0.01 minutes
	system time =       0.01 seconds =       0.00 minutes
	total time  =          0 seconds =       0.00 minutes
Total time:
	user time   =       1.64 seconds =       0.03 minutes
	system time =       0.04 seconds =       0.00 minutes
	total time  =          3 seconds =       0.05 minutes
Setting geometry variable R to 3.966667

  No DF_BASIS_SCF auxiliary basis selected, defaulting to cc-pvdz-jkfit


*** tstart() called on cx1-12-6-2.cx1.hpc.ic.ac.uk
*** at Tue Feb  4 11:31:28 2014

	There are an even number of electrons - assuming singlet.
	Specify the multiplicity with the MULTP option in the
	input if this is incorrect


         ---------------------------------------------------------
                                   SCF
            by Justin Turney, Rob Parrish, and Andy Simmonett
                              UHF Reference
                        1 Threads,   3000 MiB Core
         ---------------------------------------------------------

  ==> Geometry <==

    Molecular point group: d2h
    Full point group: D_inf_h

    Geometry (in Angstrom), charge = 0, multiplicity = 1:

       Center              X                  Y                   Z       
    ------------   -----------------  -----------------  -----------------
          AR          0.000000000000     0.000000000000    -1.983333333333
          AR          0.000000000000     0.000000000000     1.983333333333

  Running in d2h symmetry.


	Rotational constants (cm^-1):
	A = **********    B =    0.05362   C =    0.05362

	Rotational constants (MHz):
	A = **********    B = 1607.47564   C = 1607.47564
  Nuclear repulsion =   43.223550147015139

  Charge       = 0
  Multiplicity = 1
  Electrons    = 36
  Nalpha       = 18
  Nbeta        = 18

  ==> Algorithm <==

  SCF Algorithm Type is DF.
  DIIS enabled.
  MOM disabled.
  Fractional occupation disabled.
  Guess Type is CORE.
  Energy threshold   = 1.00e-08
  Density threshold  = 1.00e-08
  Integral threshold = 0.00e+00

  ==> Primary Basis <==

  Basis Set: CC-PVDZ
    Number of shells: 16
    Number of basis function: 36
    Number of Cartesian functions: 38
    Spherical Harmonics?: true
    Max angular momentum: 2

  ==> Pre-Iterations <==

   -------------------------------------------------------
    Irrep   Nso     Nmo     Nalpha   Nbeta   Ndocc  Nsocc
   -------------------------------------------------------
     Ag         9       9       0       0       0       0
     B1g        1       1       0       0       0       0
     B2g        4       4       0       0       0       0
     B3g        4       4       0       0       0       0
     Au         1       1       0       0       0       0
     B1u        9       9       0       0       0       0
     B2u        4       4       0       0       0       0
     B3u        4       4       0       0       0       0
   -------------------------------------------------------
    Total      36      36      18      18      18       0
   -------------------------------------------------------

 OEINTS: Wrapper to libmints.
   by Justin Turney

   Calculation information:
      Number of atoms:                   2
      Number of AO shells:              16
      Number of SO shells:               8
      Number of primitives:            100
      Number of atomic orbitals:        38
      Number of basis functions:        36

      Number of irreps:                  8
      Number of functions per irrep: [   9    1    4    4    1    9    4    4 ]

      Overlap, kinetic, potential, dipole, and quadrupole integrals
        stored in file 35.

  ==> Integral Setup <==

  ==> DFJK: Density-Fitted J/K Matrices <==

    J tasked:                  Yes
    K tasked:                  Yes
    wK tasked:                  No
    OpenMP threads:              1
    Integrals threads:           1
    Memory (MB):              2145
    Algorithm:                Core
    Integral Cache:           NONE
    Schwarz Cutoff:          1E-12
    Fitting Condition:       1E-12

   => Auxiliary Basis Set <=

  Basis Set: cc-pvdz-jkfit
    Number of shells: 72
    Number of basis function: 224
    Number of Cartesian functions: 260
    Spherical Harmonics?: true
    Max angular momentum: 3

  Minimum eigenvalue in the overlap matrix is 1.0958679422E-01.
  Using Symmetric Orthogonalization.
  SCF Guess: Core (One-Electron) Hamiltonian.

  ==> Iterations <==

                           Total Energy        Delta E     RMS |[F,P]|

   @DF-UHF iter   1: -1046.69368556103814   -1.04669e+03   1.60235e-01 
   @DF-UHF iter   2: -1053.36725994382709   -6.67357e+00   5.27786e-02 DIIS
   @DF-UHF iter   3: -1053.59688606355530   -2.29626e-01   5.21972e-03 DIIS
   @DF-UHF iter   4: -1053.59962678191027   -2.74072e-03   6.25140e-04 DIIS
   @DF-UHF iter   5: -1053.59965881500875   -3.20331e-05   1.05422e-04 DIIS
   @DF-UHF iter   6: -1053.59965967073708   -8.55728e-07   1.27978e-05 DIIS
   @DF-UHF iter   7: -1053.59965968677875   -1.60417e-08   3.45429e-07 DIIS
   @DF-UHF iter   8: -1053.59965968679990   -2.11458e-11   7.16718e-08 DIIS
   @DF-UHF iter   9: -1053.59965968680035   -4.54747e-13   5.55009e-09 DIIS

  ==> Post-Iterations <==

   @Spin Contamination Metric:   0.000000000E+00
   @S^2 Expected:                0.000000000E+00
   @S^2 Observed:                0.000000000E+00
   @S   Expected:                0.000000000E+00
   @S   Observed:                0.000000000E+00

	Orbital Energies (a.u.)
	-----------------------

	Alpha Occupied:                                                       

	   1B1u -118.606205     1Ag  -118.606205     2B1u  -12.317726  
	   2Ag   -12.317723     3B1u   -9.566254     3Ag    -9.566251  
	   1B3g   -9.566251     1B2g   -9.566251     1B3u   -9.566251  
	   1B2u   -9.566251     4Ag    -1.274785     4B1u   -1.273964  
	   5Ag    -0.592986     2B3u   -0.588601     2B2u   -0.588601  
	   2B2g   -0.587409     2B3g   -0.587409     5B1u   -0.583014  

	Alpha Virtual:                                                        

	   6Ag     0.732931     3B3u    0.788132     3B2u    0.788132  
	   3B3g    0.806554     3B2g    0.806554     6B1u    0.859506  
	   7Ag     0.954615     7B1u    0.980032     8B1u    1.108418  
	   1Au     1.108418     8Ag     1.108422     1B1g    1.108422  
	   4B3u    1.108427     4B2u    1.108427     4B2g    1.108428  
	   4B3g    1.108428     9Ag     1.108652     9B1u    1.109143  

	Beta Occupied:                                                        

	   1B1u -118.606205     1Ag  -118.606205     2B1u  -12.317726  
	   2Ag   -12.317723     3B1u   -9.566254     3Ag    -9.566251  
	   1B3g   -9.566251     1B2g   -9.566251     1B3u   -9.566251  
	   1B2u   -9.566251     4Ag    -1.274785     4B1u   -1.273964  
	   5Ag    -0.592986     2B3u   -0.588601     2B2u   -0.588601  
	   2B2g   -0.587409     2B3g   -0.587409     5B1u   -0.583014  

	Beta Virtual:                                                         

	   6Ag     0.732931     3B3u    0.788132     3B2u    0.788132  
	   3B3g    0.806554     3B2g    0.806554     6B1u    0.859506  
	   7Ag     0.954615     7B1u    0.980032     8B1u    1.108418  
	   1Au     1.108418     8Ag     1.108422     1B1g    1.108422  
	   4B3u    1.108427     4B2u    1.108427     4B2g    1.108428  
	   4B3g    1.108428     9Ag     1.108652     9B1u    1.109143  

	Final Occupation by Irrep:
	         Ag   B1g   B2g   B3g    Au   B1u   B2u   B3u 
	DOCC [     5,    0,    2,    2,    0,    5,    2,    2 ]
	SOCC [     0,    0,    0,    0,    0,    0,    0,    0 ]

  Energy converged.

  @DF-UHF Final Energy: -1053.59965968680035

   => Energetics <=

    Nuclear Repulsion Energy =             43.2235501470151391
    One-Electron Energy =               -1543.0021487943442935
    Two-Electron Energy =                 446.1789389605286260
    DFT Exchange-Correlation Energy =       0.0000000000000000
    Empirical Dispersion Energy =           0.0000000000000000
    Total Energy =                      -1053.5996596868003508



Properties will be evaluated at   0.000000,   0.000000,   0.000000 Bohr
  ==> Properties <==


Properties computed using the SCF density density matrix
  Nuclear Dipole Moment: (a.u.)
     X:     0.0000      Y:     0.0000      Z:     0.0000

  Electronic Dipole Moment: (a.u.)
     X:     0.0000      Y:     0.0000      Z:     0.0000

  Dipole Moment: (a.u.)
     X:     0.0000      Y:     0.0000      Z:     0.0000     Total:     0.0000

  Dipole Moment: (Debye)
     X:     0.0000      Y:     0.0000      Z:     0.0000     Total:     0.0000


  Saving occupied orbitals to File 180.

*** tstop() called on cx1-12-6-2.cx1.hpc.ic.ac.uk at Tue Feb  4 11:31:29 2014
Module time:
	user time   =       0.49 seconds =       0.01 minutes
	system time =       0.00 seconds =       0.00 minutes
	total time  =          1 seconds =       0.02 minutes
Total time:
	user time   =       2.15 seconds =       0.04 minutes
	system time =       0.04 seconds =       0.00 minutes
	total time  =          4 seconds =       0.07 minutes

  //>>>>>>>>>>>>>>>>>>>>>>>>>>>>>>>>>>>//
  //               DFMP2               //
  //<<<<<<<<<<<<<<<<<<<<<<<<<<<<<<<<<<<//

  No DF_BASIS_MP2 auxiliary basis selected, defaulting to cc-pvdz-ri

*** tstart() called on cx1-12-6-2.cx1.hpc.ic.ac.uk
*** at Tue Feb  4 11:31:29 2014

	 --------------------------------------------------------
	                          DF-MP2                         
	      2nd-Order Density-Fitted Moller-Plesset Theory     
	              UMP2 Wavefunction,   1 Threads             
	                                                         
	        Rob Parrish, Justin Turney, Andy Simmonett,      
	           Ed Hohenstein, and C. David Sherrill          
	 --------------------------------------------------------

	 --------------------------------------------------------
	                 NBF =    36, NAUX =   152
	 --------------------------------------------------------
	   CLASS    FOCC     OCC    AOCC    AVIR     VIR    FVIR
	   ALPHA       0      18      18      18      18       0
	    BETA       0      18      18      18      18       0
	 --------------------------------------------------------

	----------------------------------------------------------
	 ==================> DF-MP2 Energies <=================== 
	----------------------------------------------------------
	 Reference Energy          =   -1053.5996596868003508 [H]
	 Singles Energy            =      -0.0000000000000004 [H]
	 Same-Spin Energy          =      -0.0806849652365887 [H]
	 Opposite-Spin Energy      =      -0.2106614289526631 [H]
	 Correlation Energy        =      -0.2913463941892522 [H]
	 Total Energy              =   -1053.8910060809896549 [H]
	----------------------------------------------------------
	 ================> DF-SCS-MP2 Energies <================= 
	----------------------------------------------------------
	 SCS Same-Spin Scale       =       0.3333333333333333 [-]
	 SCS Opposite-Spin Scale   =       1.2000000000000000 [-]
	 SCS Same-Spin Energy      =      -0.0268949884121962 [H]
	 SCS Opposite-Spin Energy  =      -0.2527937147431957 [H]
	 SCS Correlation Energy    =      -0.2796887031553923 [H]
	 SCS Total Energy          =   -1053.8793483899557941 [H]
	----------------------------------------------------------


*** tstop() called on cx1-12-6-2.cx1.hpc.ic.ac.uk at Tue Feb  4 11:31:30 2014
Module time:
	user time   =       0.33 seconds =       0.01 minutes
	system time =       0.01 seconds =       0.00 minutes
	total time  =          1 seconds =       0.02 minutes
Total time:
	user time   =       2.48 seconds =       0.04 minutes
	system time =       0.05 seconds =       0.00 minutes
	total time  =          5 seconds =       0.08 minutes
Setting geometry variable R to 4.200000

  No DF_BASIS_SCF auxiliary basis selected, defaulting to cc-pvdz-jkfit


*** tstart() called on cx1-12-6-2.cx1.hpc.ic.ac.uk
*** at Tue Feb  4 11:31:30 2014

	There are an even number of electrons - assuming singlet.
	Specify the multiplicity with the MULTP option in the
	input if this is incorrect


         ---------------------------------------------------------
                                   SCF
            by Justin Turney, Rob Parrish, and Andy Simmonett
                              UHF Reference
                        1 Threads,   3000 MiB Core
         ---------------------------------------------------------

  ==> Geometry <==

    Molecular point group: d2h
    Full point group: D_inf_h

    Geometry (in Angstrom), charge = 0, multiplicity = 1:

       Center              X                  Y                   Z       
    ------------   -----------------  -----------------  -----------------
          AR          0.000000000000     0.000000000000    -2.100000000000
          AR          0.000000000000     0.000000000000     2.100000000000

  Running in d2h symmetry.


	Rotational constants (cm^-1):
	A = **********    B =    0.04783   C =    0.04783

	Rotational constants (MHz):
	A = **********    B = 1433.82858   C = 1433.82858
  Nuclear repulsion =   40.822241805514288

  Charge       = 0
  Multiplicity = 1
  Electrons    = 36
  Nalpha       = 18
  Nbeta        = 18

  ==> Algorithm <==

  SCF Algorithm Type is DF.
  DIIS enabled.
  MOM disabled.
  Fractional occupation disabled.
  Guess Type is CORE.
  Energy threshold   = 1.00e-08
  Density threshold  = 1.00e-08
  Integral threshold = 0.00e+00

  ==> Primary Basis <==

  Basis Set: CC-PVDZ
    Number of shells: 16
    Number of basis function: 36
    Number of Cartesian functions: 38
    Spherical Harmonics?: true
    Max angular momentum: 2

  ==> Pre-Iterations <==

   -------------------------------------------------------
    Irrep   Nso     Nmo     Nalpha   Nbeta   Ndocc  Nsocc
   -------------------------------------------------------
     Ag         9       9       0       0       0       0
     B1g        1       1       0       0       0       0
     B2g        4       4       0       0       0       0
     B3g        4       4       0       0       0       0
     Au         1       1       0       0       0       0
     B1u        9       9       0       0       0       0
     B2u        4       4       0       0       0       0
     B3u        4       4       0       0       0       0
   -------------------------------------------------------
    Total      36      36      18      18      18       0
   -------------------------------------------------------

 OEINTS: Wrapper to libmints.
   by Justin Turney

   Calculation information:
      Number of atoms:                   2
      Number of AO shells:              16
      Number of SO shells:               8
      Number of primitives:            100
      Number of atomic orbitals:        38
      Number of basis functions:        36

      Number of irreps:                  8
      Number of functions per irrep: [   9    1    4    4    1    9    4    4 ]

      Overlap, kinetic, potential, dipole, and quadrupole integrals
        stored in file 35.

  ==> Integral Setup <==

  ==> DFJK: Density-Fitted J/K Matrices <==

    J tasked:                  Yes
    K tasked:                  Yes
    wK tasked:                  No
    OpenMP threads:              1
    Integrals threads:           1
    Memory (MB):              2145
    Algorithm:                Core
    Integral Cache:           NONE
    Schwarz Cutoff:          1E-12
    Fitting Condition:       1E-12

   => Auxiliary Basis Set <=

  Basis Set: cc-pvdz-jkfit
    Number of shells: 72
    Number of basis function: 224
    Number of Cartesian functions: 260
    Spherical Harmonics?: true
    Max angular momentum: 3

  Minimum eigenvalue in the overlap matrix is 1.0990880178E-01.
  Using Symmetric Orthogonalization.
  SCF Guess: Core (One-Electron) Hamiltonian.

  ==> Iterations <==

                           Total Energy        Delta E     RMS |[F,P]|

   @DF-UHF iter   1: -1046.71090638990972   -1.04671e+03   1.59552e-01 
   @DF-UHF iter   2: -1053.36928040877888   -6.65837e+00   5.26323e-02 DIIS
   @DF-UHF iter   3: -1053.59698376969413   -2.27703e-01   5.20516e-03 DIIS
   @DF-UHF iter   4: -1053.59969941491067   -2.71565e-03   6.20895e-04 DIIS
   @DF-UHF iter   5: -1053.59973030266883   -3.08878e-05   1.03867e-04 DIIS
   @DF-UHF iter   6: -1053.59973114504737   -8.42379e-07   1.19099e-05 DIIS
   @DF-UHF iter   7: -1053.59973115891171   -1.38643e-08   3.05952e-07 DIIS
   @DF-UHF iter   8: -1053.59973115892649   -1.47793e-11   6.38117e-08 DIIS
   @DF-UHF iter   9: -1053.59973115892717   -6.82121e-13   4.73425e-09 DIIS

  ==> Post-Iterations <==

   @Spin Contamination Metric:  -1.421085472E-14
   @S^2 Expected:                0.000000000E+00
   @S^2 Observed:               -1.421085472E-14
   @S   Expected:                0.000000000E+00
   @S   Observed:                0.000000000E+00

	Orbital Energies (a.u.)
	-----------------------

	Alpha Occupied:                                                       

	   1B1u -118.606273     1Ag  -118.606273     2B1u  -12.317778  
	   2Ag   -12.317776     3B1u   -9.566306     3Ag    -9.566305  
	   1B2g   -9.566305     1B3g   -9.566305     1B3u   -9.566304  
	   1B2u   -9.566304     4Ag    -1.274602     4B1u   -1.274184  
	   5Ag    -0.591174     2B2u   -0.588368     2B3u   -0.588368  
	   2B3g   -0.587682     2B2g   -0.587682     5B1u   -0.584862  

	Alpha Virtual:                                                        

	   6Ag     0.750600     3B3u    0.791726     3B2u    0.791726  
	   3B2g    0.802843     3B3g    0.802843     6B1u    0.844192  
	   7Ag     0.956606     7B1u    0.968209     8B1u    1.108400  
	   1Au     1.108400     4B3g    1.108401     4B2g    1.108401  
	   8Ag     1.108401     1B1g    1.108401     4B2u    1.108404  
	   4B3u    1.108404     9Ag     1.108457     9B1u    1.108559  

	Beta Occupied:                                                        

	   1B1u -118.606273     1Ag  -118.606273     2B1u  -12.317778  
	   2Ag   -12.317776     3B1u   -9.566306     3Ag    -9.566305  
	   1B2g   -9.566305     1B3g   -9.566305     1B3u   -9.566304  
	   1B2u   -9.566304     4Ag    -1.274602     4B1u   -1.274184  
	   5Ag    -0.591174     2B2u   -0.588368     2B3u   -0.588368  
	   2B3g   -0.587682     2B2g   -0.587682     5B1u   -0.584862  

	Beta Virtual:                                                         

	   6Ag     0.750600     3B3u    0.791726     3B2u    0.791726  
	   3B2g    0.802843     3B3g    0.802843     6B1u    0.844192  
	   7Ag     0.956606     7B1u    0.968209     8B1u    1.108400  
	   1Au     1.108400     4B3g    1.108401     4B2g    1.108401  
	   8Ag     1.108401     1B1g    1.108401     4B2u    1.108404  
	   4B3u    1.108404     9Ag     1.108457     9B1u    1.108559  

	Final Occupation by Irrep:
	         Ag   B1g   B2g   B3g    Au   B1u   B2u   B3u 
	DOCC [     5,    0,    2,    2,    0,    5,    2,    2 ]
	SOCC [     0,    0,    0,    0,    0,    0,    0,    0 ]

  Energy converged.

  @DF-UHF Final Energy: -1053.59973115892717

   => Energetics <=

    Nuclear Repulsion Energy =             40.8222418055142882
    One-Electron Energy =               -1538.1982435841050574
    Two-Electron Energy =                 443.7762706196635918
    DFT Exchange-Correlation Energy =       0.0000000000000000
    Empirical Dispersion Energy =           0.0000000000000000
    Total Energy =                      -1053.5997311589271703



Properties will be evaluated at   0.000000,   0.000000,   0.000000 Bohr
  ==> Properties <==


Properties computed using the SCF density density matrix
  Nuclear Dipole Moment: (a.u.)
     X:     0.0000      Y:     0.0000      Z:     0.0000

  Electronic Dipole Moment: (a.u.)
     X:     0.0000      Y:     0.0000      Z:     0.0000

  Dipole Moment: (a.u.)
     X:     0.0000      Y:     0.0000      Z:     0.0000     Total:     0.0000

  Dipole Moment: (Debye)
     X:     0.0000      Y:     0.0000      Z:     0.0000     Total:     0.0000


  Saving occupied orbitals to File 180.

*** tstop() called on cx1-12-6-2.cx1.hpc.ic.ac.uk at Tue Feb  4 11:31:31 2014
Module time:
	user time   =       0.48 seconds =       0.01 minutes
	system time =       0.01 seconds =       0.00 minutes
	total time  =          1 seconds =       0.02 minutes
Total time:
	user time   =       2.97 seconds =       0.05 minutes
	system time =       0.06 seconds =       0.00 minutes
	total time  =          6 seconds =       0.10 minutes

  //>>>>>>>>>>>>>>>>>>>>>>>>>>>>>>>>>>>//
  //               DFMP2               //
  //<<<<<<<<<<<<<<<<<<<<<<<<<<<<<<<<<<<//

  No DF_BASIS_MP2 auxiliary basis selected, defaulting to cc-pvdz-ri

*** tstart() called on cx1-12-6-2.cx1.hpc.ic.ac.uk
*** at Tue Feb  4 11:31:31 2014

	 --------------------------------------------------------
	                          DF-MP2                         
	      2nd-Order Density-Fitted Moller-Plesset Theory     
	              UMP2 Wavefunction,   1 Threads             
	                                                         
	        Rob Parrish, Justin Turney, Andy Simmonett,      
	           Ed Hohenstein, and C. David Sherrill          
	 --------------------------------------------------------

	 --------------------------------------------------------
	                 NBF =    36, NAUX =   152
	 --------------------------------------------------------
	   CLASS    FOCC     OCC    AOCC    AVIR     VIR    FVIR
	   ALPHA       0      18      18      18      18       0
	    BETA       0      18      18      18      18       0
	 --------------------------------------------------------

	----------------------------------------------------------
	 ==================> DF-MP2 Energies <=================== 
	----------------------------------------------------------
	 Reference Energy          =   -1053.5997311589271703 [H]
	 Singles Energy            =      -0.0000000000000002 [H]
	 Same-Spin Energy          =      -0.0806571351400009 [H]
	 Opposite-Spin Energy      =      -0.2106274014350460 [H]
	 Correlation Energy        =      -0.2912845365750470 [H]
	 Total Energy              =   -1053.8910156955021193 [H]
	----------------------------------------------------------
	 ================> DF-SCS-MP2 Energies <================= 
	----------------------------------------------------------
	 SCS Same-Spin Scale       =       0.3333333333333333 [-]
	 SCS Opposite-Spin Scale   =       1.2000000000000000 [-]
	 SCS Same-Spin Energy      =      -0.0268857117133336 [H]
	 SCS Opposite-Spin Energy  =      -0.2527528817220552 [H]
	 SCS Correlation Energy    =      -0.2796385934353890 [H]
	 SCS Total Energy          =   -1053.8793697523626633 [H]
	----------------------------------------------------------


*** tstop() called on cx1-12-6-2.cx1.hpc.ic.ac.uk at Tue Feb  4 11:31:32 2014
Module time:
	user time   =       0.32 seconds =       0.01 minutes
	system time =       0.00 seconds =       0.00 minutes
	total time  =          1 seconds =       0.02 minutes
Total time:
	user time   =       3.29 seconds =       0.05 minutes
	system time =       0.06 seconds =       0.00 minutes
	total time  =          7 seconds =       0.12 minutes
Setting geometry variable R to 4.433333

  No DF_BASIS_SCF auxiliary basis selected, defaulting to cc-pvdz-jkfit


*** tstart() called on cx1-12-6-2.cx1.hpc.ic.ac.uk
*** at Tue Feb  4 11:31:32 2014

	There are an even number of electrons - assuming singlet.
	Specify the multiplicity with the MULTP option in the
	input if this is incorrect


         ---------------------------------------------------------
                                   SCF
            by Justin Turney, Rob Parrish, and Andy Simmonett
                              UHF Reference
                        1 Threads,   3000 MiB Core
         ---------------------------------------------------------

  ==> Geometry <==

    Molecular point group: d2h
    Full point group: D_inf_h

    Geometry (in Angstrom), charge = 0, multiplicity = 1:

       Center              X                  Y                   Z       
    ------------   -----------------  -----------------  -----------------
          AR          0.000000000000     0.000000000000    -2.216666666667
          AR          0.000000000000     0.000000000000     2.216666666667

  Running in d2h symmetry.


	Rotational constants (cm^-1):
	A = **********    B =    0.04293   C =    0.04293

	Rotational constants (MHz):
	A = **********    B = 1286.87108   C = 1286.87108
  Nuclear repulsion =   38.673702763118811

  Charge       = 0
  Multiplicity = 1
  Electrons    = 36
  Nalpha       = 18
  Nbeta        = 18

  ==> Algorithm <==

  SCF Algorithm Type is DF.
  DIIS enabled.
  MOM disabled.
  Fractional occupation disabled.
  Guess Type is CORE.
  Energy threshold   = 1.00e-08
  Density threshold  = 1.00e-08
  Integral threshold = 0.00e+00

  ==> Primary Basis <==

  Basis Set: CC-PVDZ
    Number of shells: 16
    Number of basis function: 36
    Number of Cartesian functions: 38
    Spherical Harmonics?: true
    Max angular momentum: 2

  ==> Pre-Iterations <==

   -------------------------------------------------------
    Irrep   Nso     Nmo     Nalpha   Nbeta   Ndocc  Nsocc
   -------------------------------------------------------
     Ag         9       9       0       0       0       0
     B1g        1       1       0       0       0       0
     B2g        4       4       0       0       0       0
     B3g        4       4       0       0       0       0
     Au         1       1       0       0       0       0
     B1u        9       9       0       0       0       0
     B2u        4       4       0       0       0       0
     B3u        4       4       0       0       0       0
   -------------------------------------------------------
    Total      36      36      18      18      18       0
   -------------------------------------------------------

 OEINTS: Wrapper to libmints.
   by Justin Turney

   Calculation information:
      Number of atoms:                   2
      Number of AO shells:              16
      Number of SO shells:               8
      Number of primitives:            100
      Number of atomic orbitals:        38
      Number of basis functions:        36

      Number of irreps:                  8
      Number of functions per irrep: [   9    1    4    4    1    9    4    4 ]

      Overlap, kinetic, potential, dipole, and quadrupole integrals
        stored in file 35.

  ==> Integral Setup <==

  ==> DFJK: Density-Fitted J/K Matrices <==

    J tasked:                  Yes
    K tasked:                  Yes
    wK tasked:                  No
    OpenMP threads:              1
    Integrals threads:           1
    Memory (MB):              2145
    Algorithm:                Core
    Integral Cache:           NONE
    Schwarz Cutoff:          1E-12
    Fitting Condition:       1E-12

   => Auxiliary Basis Set <=

  Basis Set: cc-pvdz-jkfit
    Number of shells: 72
    Number of basis function: 224
    Number of Cartesian functions: 260
    Spherical Harmonics?: true
    Max angular momentum: 3

  Minimum eigenvalue in the overlap matrix is 1.1005415397E-01.
  Using Symmetric Orthogonalization.
  SCF Guess: Core (One-Electron) Hamiltonian.

  ==> Iterations <==

                           Total Energy        Delta E     RMS |[F,P]|

   @DF-UHF iter   1: -1046.72267368868870   -1.04672e+03   1.59075e-01 
   @DF-UHF iter   2: -1053.37076075759774   -6.64809e+00   5.25253e-02 DIIS
   @DF-UHF iter   3: -1053.59701873746121   -2.26258e-01   5.19387e-03 DIIS
   @DF-UHF iter   4: -1053.59971574162228   -2.69700e-03   6.16817e-04 DIIS
   @DF-UHF iter   5: -1053.59974562724460   -2.98856e-05   1.02556e-04 DIIS
   @DF-UHF iter   6: -1053.59974646056162   -8.33317e-07   1.10424e-05 DIIS
   @DF-UHF iter   7: -1053.59974647246258   -1.19010e-08   2.78460e-07 DIIS
   @DF-UHF iter   8: -1053.59974647247509   -1.25056e-11   5.73931e-08 DIIS
   @DF-UHF iter   9: -1053.59974647247577   -6.82121e-13   4.07759e-09 DIIS

  ==> Post-Iterations <==

   @Spin Contamination Metric:   2.131628207E-14
   @S^2 Expected:                0.000000000E+00
   @S^2 Observed:                2.131628207E-14
   @S   Expected:                0.000000000E+00
   @S   Observed:                0.000000000E+00

	Orbital Energies (a.u.)
	-----------------------

	Alpha Occupied:                                                       

	   1B1u -118.606292     1Ag  -118.606292     2B1u  -12.317791  
	   2Ag   -12.317790     3B1u   -9.566320     1B2g   -9.566319  
	   1B3g   -9.566319     1B3u   -9.566319     1B2u   -9.566319  
	   3Ag    -9.566319     4Ag    -1.274500     4B1u   -1.274294  
	   5Ag    -0.589994     2B2u   -0.588223     2B3u   -0.588223  
	   2B2g   -0.587836     2B3g   -0.587836     5B1u   -0.586055  

	Alpha Virtual:                                                        

	   6Ag     0.765776     3B3u    0.794072     3B2u    0.794072  
	   3B2g    0.800460     3B3g    0.800460     6B1u    0.829215  
	   7Ag     0.957984     7B1u    0.963173     4B2g    1.108397  
	   4B3g    1.108397     8B1u    1.108397     1Au     1.108397  
	   8Ag     1.108398     1B1g    1.108398     4B3u    1.108400  
	   4B2u    1.108400     9Ag     1.108408     9B1u    1.108432  

	Beta Occupied:                                                        

	   1B1u -118.606292     1Ag  -118.606292     2B1u  -12.317791  
	   2Ag   -12.317790     3B1u   -9.566320     1B2g   -9.566319  
	   1B3g   -9.566319     1B3u   -9.566319     1B2u   -9.566319  
	   3Ag    -9.566319     4Ag    -1.274500     4B1u   -1.274294  
	   5Ag    -0.589994     2B2u   -0.588223     2B3u   -0.588223  
	   2B2g   -0.587836     2B3g   -0.587836     5B1u   -0.586055  

	Beta Virtual:                                                         

	   6Ag     0.765776     3B3u    0.794072     3B2u    0.794072  
	   3B2g    0.800460     3B3g    0.800460     6B1u    0.829215  
	   7Ag     0.957984     7B1u    0.963173     4B2g    1.108397  
	   4B3g    1.108397     8B1u    1.108397     1Au     1.108397  
	   8Ag     1.108398     1B1g    1.108398     4B3u    1.108400  
	   4B2u    1.108400     9Ag     1.108408     9B1u    1.108432  

	Final Occupation by Irrep:
	         Ag   B1g   B2g   B3g    Au   B1u   B2u   B3u 
	DOCC [     5,    0,    2,    2,    0,    5,    2,    2 ]
	SOCC [     0,    0,    0,    0,    0,    0,    0,    0 ]

  Energy converged.

  @DF-UHF Final Energy: -1053.59974647247577

   => Energetics <=

    Nuclear Repulsion Energy =             38.6737027631188113
    One-Electron Energy =               -1533.9008209874041313
    Two-Electron Energy =                 441.6273717518095054
    DFT Exchange-Correlation Energy =       0.0000000000000000
    Empirical Dispersion Energy =           0.0000000000000000
    Total Energy =                      -1053.5997464724757720



Properties will be evaluated at   0.000000,   0.000000,   0.000000 Bohr
  ==> Properties <==


Properties computed using the SCF density density matrix
  Nuclear Dipole Moment: (a.u.)
     X:     0.0000      Y:     0.0000      Z:     0.0000

  Electronic Dipole Moment: (a.u.)
     X:     0.0000      Y:     0.0000      Z:     0.0000

  Dipole Moment: (a.u.)
     X:     0.0000      Y:     0.0000      Z:     0.0000     Total:     0.0000

  Dipole Moment: (Debye)
     X:     0.0000      Y:     0.0000      Z:     0.0000     Total:     0.0000


  Saving occupied orbitals to File 180.

*** tstop() called on cx1-12-6-2.cx1.hpc.ic.ac.uk at Tue Feb  4 11:31:33 2014
Module time:
	user time   =       0.48 seconds =       0.01 minutes
	system time =       0.01 seconds =       0.00 minutes
	total time  =          1 seconds =       0.02 minutes
Total time:
	user time   =       3.79 seconds =       0.06 minutes
	system time =       0.07 seconds =       0.00 minutes
	total time  =          8 seconds =       0.13 minutes

  //>>>>>>>>>>>>>>>>>>>>>>>>>>>>>>>>>>>//
  //               DFMP2               //
  //<<<<<<<<<<<<<<<<<<<<<<<<<<<<<<<<<<<//

  No DF_BASIS_MP2 auxiliary basis selected, defaulting to cc-pvdz-ri

*** tstart() called on cx1-12-6-2.cx1.hpc.ic.ac.uk
*** at Tue Feb  4 11:31:33 2014

	 --------------------------------------------------------
	                          DF-MP2                         
	      2nd-Order Density-Fitted Moller-Plesset Theory     
	              UMP2 Wavefunction,   1 Threads             
	                                                         
	        Rob Parrish, Justin Turney, Andy Simmonett,      
	           Ed Hohenstein, and C. David Sherrill          
	 --------------------------------------------------------

	 --------------------------------------------------------
	                 NBF =    36, NAUX =   152
	 --------------------------------------------------------
	   CLASS    FOCC     OCC    AOCC    AVIR     VIR    FVIR
	   ALPHA       0      18      18      18      18       0
	    BETA       0      18      18      18      18       0
	 --------------------------------------------------------

	----------------------------------------------------------
	 ==================> DF-MP2 Energies <=================== 
	----------------------------------------------------------
	 Reference Energy          =   -1053.5997464724757720 [H]
	 Singles Energy            =      -0.0000000000000002 [H]
	 Same-Spin Energy          =      -0.0806402423967402 [H]
	 Opposite-Spin Energy      =      -0.2106071535655036 [H]
	 Correlation Energy        =      -0.2912473959622439 [H]
	 Total Energy              =   -1053.8909938684380450 [H]
	----------------------------------------------------------
	 ================> DF-SCS-MP2 Energies <================= 
	----------------------------------------------------------
	 SCS Same-Spin Scale       =       0.3333333333333333 [-]
	 SCS Opposite-Spin Scale   =       1.2000000000000000 [-]
	 SCS Same-Spin Energy      =      -0.0268800807989134 [H]
	 SCS Opposite-Spin Energy  =      -0.2527285842786043 [H]
	 SCS Correlation Energy    =      -0.2796086650775179 [H]
	 SCS Total Energy          =   -1053.8793551375533752 [H]
	----------------------------------------------------------


*** tstop() called on cx1-12-6-2.cx1.hpc.ic.ac.uk at Tue Feb  4 11:31:33 2014
Module time:
	user time   =       0.32 seconds =       0.01 minutes
	system time =       0.01 seconds =       0.00 minutes
	total time  =          0 seconds =       0.00 minutes
Total time:
	user time   =       4.11 seconds =       0.07 minutes
	system time =       0.08 seconds =       0.00 minutes
	total time  =          8 seconds =       0.13 minutes
Setting geometry variable R to 4.666667

  No DF_BASIS_SCF auxiliary basis selected, defaulting to cc-pvdz-jkfit


*** tstart() called on cx1-12-6-2.cx1.hpc.ic.ac.uk
*** at Tue Feb  4 11:31:34 2014

	There are an even number of electrons - assuming singlet.
	Specify the multiplicity with the MULTP option in the
	input if this is incorrect


         ---------------------------------------------------------
                                   SCF
            by Justin Turney, Rob Parrish, and Andy Simmonett
                              UHF Reference
                        1 Threads,   3000 MiB Core
         ---------------------------------------------------------

  ==> Geometry <==

    Molecular point group: d2h
    Full point group: D_inf_h

    Geometry (in Angstrom), charge = 0, multiplicity = 1:

       Center              X                  Y                   Z       
    ------------   -----------------  -----------------  -----------------
          AR          0.000000000000     0.000000000000    -2.333333333333
          AR          0.000000000000     0.000000000000     2.333333333333

  Running in d2h symmetry.


	Rotational constants (cm^-1):
	A = **********    B =    0.03874   C =    0.03874

	Rotational constants (MHz):
	A = **********    B = 1161.40115   C = 1161.40115
  Nuclear repulsion =   36.740017624962853

  Charge       = 0
  Multiplicity = 1
  Electrons    = 36
  Nalpha       = 18
  Nbeta        = 18

  ==> Algorithm <==

  SCF Algorithm Type is DF.
  DIIS enabled.
  MOM disabled.
  Fractional occupation disabled.
  Guess Type is CORE.
  Energy threshold   = 1.00e-08
  Density threshold  = 1.00e-08
  Integral threshold = 0.00e+00

  ==> Primary Basis <==

  Basis Set: CC-PVDZ
    Number of shells: 16
    Number of basis function: 36
    Number of Cartesian functions: 38
    Spherical Harmonics?: true
    Max angular momentum: 2

  ==> Pre-Iterations <==

   -------------------------------------------------------
    Irrep   Nso     Nmo     Nalpha   Nbeta   Ndocc  Nsocc
   -------------------------------------------------------
     Ag         9       9       0       0       0       0
     B1g        1       1       0       0       0       0
     B2g        4       4       0       0       0       0
     B3g        4       4       0       0       0       0
     Au         1       1       0       0       0       0
     B1u        9       9       0       0       0       0
     B2u        4       4       0       0       0       0
     B3u        4       4       0       0       0       0
   -------------------------------------------------------
    Total      36      36      18      18      18       0
   -------------------------------------------------------

 OEINTS: Wrapper to libmints.
   by Justin Turney

   Calculation information:
      Number of atoms:                   2
      Number of AO shells:              16
      Number of SO shells:               8
      Number of primitives:            100
      Number of atomic orbitals:        38
      Number of basis functions:        36

      Number of irreps:                  8
      Number of functions per irrep: [   9    1    4    4    1    9    4    4 ]

      Overlap, kinetic, potential, dipole, and quadrupole integrals
        stored in file 35.

  ==> Integral Setup <==

  ==> DFJK: Density-Fitted J/K Matrices <==

    J tasked:                  Yes
    K tasked:                  Yes
    wK tasked:                  No
    OpenMP threads:              1
    Integrals threads:           1
    Memory (MB):              2145
    Algorithm:                Core
    Integral Cache:           NONE
    Schwarz Cutoff:          1E-12
    Fitting Condition:       1E-12

   => Auxiliary Basis Set <=

  Basis Set: cc-pvdz-jkfit
    Number of shells: 72
    Number of basis function: 224
    Number of Cartesian functions: 260
    Spherical Harmonics?: true
    Max angular momentum: 3

  Minimum eigenvalue in the overlap matrix is 1.1011745587E-01.
  Using Symmetric Orthogonalization.
  SCF Guess: Core (One-Electron) Hamiltonian.

  ==> Iterations <==

                           Total Energy        Delta E     RMS |[F,P]|

   @DF-UHF iter   1: -1046.73101532341957   -1.04673e+03   1.58730e-01 
   @DF-UHF iter   2: -1053.37183621944428   -6.64082e+00   5.24473e-02 DIIS
   @DF-UHF iter   3: -1053.59703147508412   -2.25195e-01   5.18562e-03 DIIS
   @DF-UHF iter   4: -1053.59971510551645   -2.68363e-03   6.13368e-04 DIIS
   @DF-UHF iter   5: -1053.59974416904652   -2.90635e-05   1.01484e-04 DIIS
   @DF-UHF iter   6: -1053.59974499612167   -8.27075e-07   1.02263e-05 DIIS
   @DF-UHF iter   7: -1053.59974500631961   -1.01979e-08   2.58939e-07 DIIS
   @DF-UHF iter   8: -1053.59974500632916   -9.54969e-12   5.22061e-08 DIIS
   @DF-UHF iter   9: -1053.59974500632916    0.00000e+00   3.55545e-09 DIIS

  ==> Post-Iterations <==

   @Spin Contamination Metric:   1.776356839E-14
   @S^2 Expected:                0.000000000E+00
   @S^2 Observed:                1.776356839E-14
   @S   Expected:                0.000000000E+00
   @S   Observed:                0.000000000E+00

	Orbital Energies (a.u.)
	-----------------------

	Alpha Occupied:                                                       

	   1B1u -118.606294     1Ag  -118.606294     2B1u  -12.317792  
	   2Ag   -12.317791     3B1u   -9.566320     1B3g   -9.566320  
	   1B2g   -9.566320     1B3u   -9.566320     1B2u   -9.566320  
	   3Ag    -9.566319     4Ag    -1.274445     4B1u   -1.274347  
	   5Ag    -0.589231     2B3u   -0.588135     2B2u   -0.588135  
	   2B2g   -0.587921     2B3g   -0.587921     5B1u   -0.586821  

	Alpha Virtual:                                                        

	   6Ag     0.777340     3B2u    0.795510     3B3u    0.795510  
	   3B3g    0.799014     3B2g    0.799014     6B1u    0.817443  
	   7Ag     0.958843     7B1u    0.961123     4B3g    1.108399  
	   4B2g    1.108399     8B1u    1.108399     1Au     1.108399  
	   8Ag     1.108399     1B1g    1.108399     4B2u    1.108400  
	   4B3u    1.108400     9Ag     1.108401     9B1u    1.108407  

	Beta Occupied:                                                        

	   1B1u -118.606294     1Ag  -118.606294     2B1u  -12.317792  
	   2Ag   -12.317791     3B1u   -9.566320     1B3g   -9.566320  
	   1B2g   -9.566320     1B3u   -9.566320     1B2u   -9.566320  
	   3Ag    -9.566319     4Ag    -1.274445     4B1u   -1.274347  
	   5Ag    -0.589231     2B3u   -0.588135     2B2u   -0.588135  
	   2B2g   -0.587921     2B3g   -0.587921     5B1u   -0.586821  

	Beta Virtual:                                                         

	   6Ag     0.777340     3B2u    0.795510     3B3u    0.795510  
	   3B3g    0.799014     3B2g    0.799014     6B1u    0.817443  
	   7Ag     0.958843     7B1u    0.961123     4B3g    1.108399  
	   4B2g    1.108399     8B1u    1.108399     1Au     1.108399  
	   8Ag     1.108399     1B1g    1.108399     4B2u    1.108400  
	   4B3u    1.108400     9Ag     1.108401     9B1u    1.108407  

	Final Occupation by Irrep:
	         Ag   B1g   B2g   B3g    Au   B1u   B2u   B3u 
	DOCC [     5,    0,    2,    2,    0,    5,    2,    2 ]
	SOCC [     0,    0,    0,    0,    0,    0,    0,    0 ]

  Energy converged.

  @DF-UHF Final Energy: -1053.59974500632916

   => Energetics <=

    Nuclear Repulsion Energy =             36.7400176249628529
    One-Electron Energy =               -1530.0334378326235765
    Two-Electron Energy =                 439.6936752013315868
    DFT Exchange-Correlation Energy =       0.0000000000000000
    Empirical Dispersion Energy =           0.0000000000000000
    Total Energy =                      -1053.5997450063291581



Properties will be evaluated at   0.000000,   0.000000,   0.000000 Bohr
  ==> Properties <==


Properties computed using the SCF density density matrix
  Nuclear Dipole Moment: (a.u.)
     X:     0.0000      Y:     0.0000      Z:     0.0000

  Electronic Dipole Moment: (a.u.)
     X:     0.0000      Y:     0.0000      Z:     0.0000

  Dipole Moment: (a.u.)
     X:     0.0000      Y:     0.0000      Z:     0.0000     Total:     0.0000

  Dipole Moment: (Debye)
     X:     0.0000      Y:     0.0000      Z:     0.0000     Total:     0.0000


  Saving occupied orbitals to File 180.

*** tstop() called on cx1-12-6-2.cx1.hpc.ic.ac.uk at Tue Feb  4 11:31:35 2014
Module time:
	user time   =       0.46 seconds =       0.01 minutes
	system time =       0.01 seconds =       0.00 minutes
	total time  =          1 seconds =       0.02 minutes
Total time:
	user time   =       4.59 seconds =       0.08 minutes
	system time =       0.09 seconds =       0.00 minutes
	total time  =         10 seconds =       0.17 minutes

  //>>>>>>>>>>>>>>>>>>>>>>>>>>>>>>>>>>>//
  //               DFMP2               //
  //<<<<<<<<<<<<<<<<<<<<<<<<<<<<<<<<<<<//

  No DF_BASIS_MP2 auxiliary basis selected, defaulting to cc-pvdz-ri

*** tstart() called on cx1-12-6-2.cx1.hpc.ic.ac.uk
*** at Tue Feb  4 11:31:35 2014

	 --------------------------------------------------------
	                          DF-MP2                         
	      2nd-Order Density-Fitted Moller-Plesset Theory     
	              UMP2 Wavefunction,   1 Threads             
	                                                         
	        Rob Parrish, Justin Turney, Andy Simmonett,      
	           Ed Hohenstein, and C. David Sherrill          
	 --------------------------------------------------------

	 --------------------------------------------------------
	                 NBF =    36, NAUX =   152
	 --------------------------------------------------------
	   CLASS    FOCC     OCC    AOCC    AVIR     VIR    FVIR
	   ALPHA       0      18      18      18      18       0
	    BETA       0      18      18      18      18       0
	 --------------------------------------------------------

	----------------------------------------------------------
	 ==================> DF-MP2 Energies <=================== 
	----------------------------------------------------------
	 Reference Energy          =   -1053.5997450063291581 [H]
	 Singles Energy            =      -0.0000000000000001 [H]
	 Same-Spin Energy          =      -0.0806296134729737 [H]
	 Opposite-Spin Energy      =      -0.2105948434483481 [H]
	 Correlation Energy        =      -0.2912244569213219 [H]
	 Total Energy              =   -1053.8909694632504852 [H]
	----------------------------------------------------------
	 ================> DF-SCS-MP2 Energies <================= 
	----------------------------------------------------------
	 SCS Same-Spin Scale       =       0.3333333333333333 [-]
	 SCS Opposite-Spin Scale   =       1.2000000000000000 [-]
	 SCS Same-Spin Energy      =      -0.0268765378243246 [H]
	 SCS Opposite-Spin Energy  =      -0.2527138121380177 [H]
	 SCS Correlation Energy    =      -0.2795903499623424 [H]
	 SCS Total Energy          =   -1053.8793353562914490 [H]
	----------------------------------------------------------


*** tstop() called on cx1-12-6-2.cx1.hpc.ic.ac.uk at Tue Feb  4 11:31:35 2014
Module time:
	user time   =       0.33 seconds =       0.01 minutes
	system time =       0.00 seconds =       0.00 minutes
	total time  =          0 seconds =       0.00 minutes
Total time:
	user time   =       4.92 seconds =       0.08 minutes
	system time =       0.09 seconds =       0.00 minutes
	total time  =         10 seconds =       0.17 minutes
Setting geometry variable R to 4.900000

  No DF_BASIS_SCF auxiliary basis selected, defaulting to cc-pvdz-jkfit


*** tstart() called on cx1-12-6-2.cx1.hpc.ic.ac.uk
*** at Tue Feb  4 11:31:35 2014

	There are an even number of electrons - assuming singlet.
	Specify the multiplicity with the MULTP option in the
	input if this is incorrect


         ---------------------------------------------------------
                                   SCF
            by Justin Turney, Rob Parrish, and Andy Simmonett
                              UHF Reference
                        1 Threads,   3000 MiB Core
         ---------------------------------------------------------

  ==> Geometry <==

    Molecular point group: d2h
    Full point group: D_inf_h

    Geometry (in Angstrom), charge = 0, multiplicity = 1:

       Center              X                  Y                   Z       
    ------------   -----------------  -----------------  -----------------
          AR          0.000000000000     0.000000000000    -2.450000000000
          AR          0.000000000000     0.000000000000     2.450000000000

  Running in d2h symmetry.


	Rotational constants (cm^-1):
	A = **********    B =    0.03514   C =    0.03514

	Rotational constants (MHz):
	A = **********    B = 1053.42508   C = 1053.42508
  Nuclear repulsion =   34.990492976155096

  Charge       = 0
  Multiplicity = 1
  Electrons    = 36
  Nalpha       = 18
  Nbeta        = 18

  ==> Algorithm <==

  SCF Algorithm Type is DF.
  DIIS enabled.
  MOM disabled.
  Fractional occupation disabled.
  Guess Type is CORE.
  Energy threshold   = 1.00e-08
  Density threshold  = 1.00e-08
  Integral threshold = 0.00e+00

  ==> Primary Basis <==

  Basis Set: CC-PVDZ
    Number of shells: 16
    Number of basis function: 36
    Number of Cartesian functions: 38
    Spherical Harmonics?: true
    Max angular momentum: 2

  ==> Pre-Iterations <==

   -------------------------------------------------------
    Irrep   Nso     Nmo     Nalpha   Nbeta   Ndocc  Nsocc
   -------------------------------------------------------
     Ag         9       9       0       0       0       0
     B1g        1       1       0       0       0       0
     B2g        4       4       0       0       0       0
     B3g        4       4       0       0       0       0
     Au         1       1       0       0       0       0
     B1u        9       9       0       0       0       0
     B2u        4       4       0       0       0       0
     B3u        4       4       0       0       0       0
   -------------------------------------------------------
    Total      36      36      18      18      18       0
   -------------------------------------------------------

 OEINTS: Wrapper to libmints.
   by Justin Turney

   Calculation information:
      Number of atoms:                   2
      Number of AO shells:              16
      Number of SO shells:               8
      Number of primitives:            100
      Number of atomic orbitals:        38
      Number of basis functions:        36

      Number of irreps:                  8
      Number of functions per irrep: [   9    1    4    4    1    9    4    4 ]

      Overlap, kinetic, potential, dipole, and quadrupole integrals
        stored in file 35.

  ==> Integral Setup <==

  ==> DFJK: Density-Fitted J/K Matrices <==

    J tasked:                  Yes
    K tasked:                  Yes
    wK tasked:                  No
    OpenMP threads:              1
    Integrals threads:           1
    Memory (MB):              2145
    Algorithm:                Core
    Integral Cache:           NONE
    Schwarz Cutoff:          1E-12
    Fitting Condition:       1E-12

   => Auxiliary Basis Set <=

  Basis Set: cc-pvdz-jkfit
    Number of shells: 72
    Number of basis function: 224
    Number of Cartesian functions: 260
    Spherical Harmonics?: true
    Max angular momentum: 3

  Minimum eigenvalue in the overlap matrix is 1.1014399204E-01.
  Using Symmetric Orthogonalization.
  SCF Guess: Core (One-Electron) Hamiltonian.

  ==> Iterations <==

                           Total Energy        Delta E     RMS |[F,P]|

   @DF-UHF iter   1: -1046.73718744869007   -1.04674e+03   1.58472e-01 
   @DF-UHF iter   2: -1053.37262837217895   -6.63544e+00   5.23897e-02 DIIS
   @DF-UHF iter   3: -1053.59703799338808   -2.24410e-01   5.17959e-03 DIIS
   @DF-UHF iter   4: -1053.59971192402736   -2.67393e-03   6.10554e-04 DIIS
   @DF-UHF iter   5: -1053.59974032456148   -2.84005e-05   1.00612e-04 DIIS
   @DF-UHF iter   6: -1053.59974114721126   -8.22650e-07   9.47132e-06 DIIS
   @DF-UHF iter   7: -1053.59974115595355   -8.74229e-09   2.43964e-07 DIIS
   @DF-UHF iter   8: -1053.59974115596083   -7.27596e-12   4.78338e-08 DIIS
   @DF-UHF iter   9: -1053.59974115596219   -1.36424e-12   3.13085e-09 DIIS

  ==> Post-Iterations <==

   @Spin Contamination Metric:   7.105427358E-15
   @S^2 Expected:                0.000000000E+00
   @S^2 Observed:                7.105427358E-15
   @S   Expected:                0.000000000E+00
   @S   Observed:                0.000000000E+00

	Orbital Energies (a.u.)
	-----------------------

	Alpha Occupied:                                                       

	   1B1u -118.606293     1Ag  -118.606293     2B1u  -12.317789  
	   2Ag   -12.317789     3B1u   -9.566318     1B2g   -9.566318  
	   1B3g   -9.566318     1B3u   -9.566318     1B2u   -9.566318  
	   3Ag    -9.566318     4Ag    -1.274416     4B1u   -1.274372  
	   5Ag    -0.588743     2B2u   -0.588084     2B3u   -0.588084  
	   2B3g   -0.587969     2B2g   -0.587969     5B1u   -0.587308  

	Alpha Virtual:                                                        

	   6Ag     0.785371     3B2u    0.796342     3B3u    0.796342  
	   3B3g    0.798181     3B2g    0.798181     6B1u    0.809258  
	   7Ag     0.959323     7B1u    0.960294     4B2g    1.108401  
	   4B3g    1.108401     8B1u    1.108401     1Au     1.108401  
	   8Ag     1.108401     1B1g    1.108401     9Ag     1.108401  
	   4B3u    1.108402     4B2u    1.108402     9B1u    1.108403  

	Beta Occupied:                                                        

	   1B1u -118.606293     1Ag  -118.606293     2B1u  -12.317789  
	   2Ag   -12.317789     3B1u   -9.566318     1B2g   -9.566318  
	   1B3g   -9.566318     1B3u   -9.566318     1B2u   -9.566318  
	   3Ag    -9.566318     4Ag    -1.274416     4B1u   -1.274372  
	   5Ag    -0.588743     2B2u   -0.588084     2B3u   -0.588084  
	   2B3g   -0.587969     2B2g   -0.587969     5B1u   -0.587308  

	Beta Virtual:                                                         

	   6Ag     0.785371     3B2u    0.796342     3B3u    0.796342  
	   3B3g    0.798181     3B2g    0.798181     6B1u    0.809258  
	   7Ag     0.959323     7B1u    0.960294     4B2g    1.108401  
	   4B3g    1.108401     8B1u    1.108401     1Au     1.108401  
	   8Ag     1.108401     1B1g    1.108401     9Ag     1.108401  
	   4B3u    1.108402     4B2u    1.108402     9B1u    1.108403  

	Final Occupation by Irrep:
	         Ag   B1g   B2g   B3g    Au   B1u   B2u   B3u 
	DOCC [     5,    0,    2,    2,    0,    5,    2,    2 ]
	SOCC [     0,    0,    0,    0,    0,    0,    0,    0 ]

  Energy converged.

  @DF-UHF Final Energy: -1053.59974115596219

   => Energetics <=

    Nuclear Repulsion Energy =             34.9904929761550960
    One-Electron Energy =               -1526.5344403224221423
    Two-Electron Energy =                 437.9442061903048398
    DFT Exchange-Correlation Energy =       0.0000000000000000
    Empirical Dispersion Energy =           0.0000000000000000
    Total Energy =                      -1053.5997411559621924



Properties will be evaluated at   0.000000,   0.000000,   0.000000 Bohr
  ==> Properties <==


Properties computed using the SCF density density matrix
  Nuclear Dipole Moment: (a.u.)
     X:     0.0000      Y:     0.0000      Z:     0.0000

  Electronic Dipole Moment: (a.u.)
     X:     0.0000      Y:     0.0000      Z:     0.0000

  Dipole Moment: (a.u.)
     X:     0.0000      Y:     0.0000      Z:     0.0000     Total:     0.0000

  Dipole Moment: (Debye)
     X:     0.0000      Y:     0.0000      Z:     0.0000     Total:     0.0000


  Saving occupied orbitals to File 180.

*** tstop() called on cx1-12-6-2.cx1.hpc.ic.ac.uk at Tue Feb  4 11:31:37 2014
Module time:
	user time   =       0.45 seconds =       0.01 minutes
	system time =       0.01 seconds =       0.00 minutes
	total time  =          2 seconds =       0.03 minutes
Total time:
	user time   =       5.39 seconds =       0.09 minutes
	system time =       0.10 seconds =       0.00 minutes
	total time  =         12 seconds =       0.20 minutes

  //>>>>>>>>>>>>>>>>>>>>>>>>>>>>>>>>>>>//
  //               DFMP2               //
  //<<<<<<<<<<<<<<<<<<<<<<<<<<<<<<<<<<<//

  No DF_BASIS_MP2 auxiliary basis selected, defaulting to cc-pvdz-ri

*** tstart() called on cx1-12-6-2.cx1.hpc.ic.ac.uk
*** at Tue Feb  4 11:31:37 2014

	 --------------------------------------------------------
	                          DF-MP2                         
	      2nd-Order Density-Fitted Moller-Plesset Theory     
	              UMP2 Wavefunction,   1 Threads             
	                                                         
	        Rob Parrish, Justin Turney, Andy Simmonett,      
	           Ed Hohenstein, and C. David Sherrill          
	 --------------------------------------------------------

	 --------------------------------------------------------
	                 NBF =    36, NAUX =   152
	 --------------------------------------------------------
	   CLASS    FOCC     OCC    AOCC    AVIR     VIR    FVIR
	   ALPHA       0      18      18      18      18       0
	    BETA       0      18      18      18      18       0
	 --------------------------------------------------------

[...]
      Number of primitives:            100
      Number of atomic orbitals:        38
      Number of basis functions:        36

      Number of irreps:                  8
      Number of functions per irrep: [   9    1    4    4    1    9    4    4 ]

      Overlap, kinetic, potential, dipole, and quadrupole integrals
        stored in file 35.

  ==> Integral Setup <==

  ==> DFJK: Density-Fitted J/K Matrices <==

    J tasked:                  Yes
    K tasked:                  Yes
    wK tasked:                  No
    OpenMP threads:              1
    Integrals threads:           1
    Memory (MB):              2145
    Algorithm:                Core
    Integral Cache:           NONE
    Schwarz Cutoff:          1E-12
    Fitting Condition:       1E-12

   => Auxiliary Basis Set <=

  Basis Set: cc-pvdz-jkfit
    Number of shells: 72
    Number of basis function: 224
    Number of Cartesian functions: 260
    Spherical Harmonics?: true
    Max angular momentum: 3

  Minimum eigenvalue in the overlap matrix is 1.1016109308E-01.
  Using Symmetric Orthogonalization.
  SCF Guess: Core (One-Electron) Hamiltonian.

  ==> Iterations <==

                           Total Energy        Delta E     RMS |[F,P]|

   @DF-UHF iter   1: -1046.75711690070216   -1.04676e+03   1.57627e-01 
   @DF-UHF iter   2: -1053.37509124039343   -6.61797e+00   5.22104e-02 DIIS
   @DF-UHF iter   3: -1053.59706609009731   -2.21975e-01   5.16081e-03 DIIS
   @DF-UHF iter   4: -1053.59970977178864   -2.64368e-03   6.00375e-04 DIIS
   @DF-UHF iter   5: -1053.59973580042697   -2.60286e-05   9.73566e-05 DIIS
   @DF-UHF iter   6: -1053.59973661032541   -8.09898e-07   5.37170e-06 DIIS
   @DF-UHF iter   7: -1053.59973661311733   -2.79192e-09   1.87420e-07 DIIS
   @DF-UHF iter   8: -1053.59973661311983   -2.50111e-12   2.65305e-08 DIIS
   @DF-UHF iter   9: -1053.59973661312051   -6.82121e-13   1.55711e-09 DIIS

  ==> Post-Iterations <==

   @Spin Contamination Metric:  -3.552713679E-15
   @S^2 Expected:                0.000000000E+00
   @S^2 Observed:               -3.552713679E-15
   @S   Expected:                0.000000000E+00
   @S   Observed:                0.000000000E+00

	Orbital Energies (a.u.)
	-----------------------

	Alpha Occupied:                                                       

	   1B1u -118.606290     1Ag  -118.606290     2B1u  -12.317786  
	   2Ag   -12.317786     3B1u   -9.566315     3Ag    -9.566315  
	   1B2g   -9.566315     1B3g   -9.566315     1B3u   -9.566315  
	   1B2u   -9.566315     4Ag    -1.274392     4B1u   -1.274392  
	   5Ag    -0.588027     2B2u   -0.588025     2B3u   -0.588025  
	   2B3g   -0.588024     2B2g   -0.588024     5B1u   -0.588022  

	Alpha Virtual:                                                        

	   6Ag     0.797229     3B3u    0.797262     3B2u    0.797262  
	   3B2g    0.797264     3B3g    0.797264     6B1u    0.797296  
	   7Ag     0.959749     7B1u    0.959749     4B2g    1.108403  
	   4B3g    1.108403     4B3u    1.108403     4B2u    1.108403  
	   8B1u    1.108403     1Au     1.108403     8Ag     1.108403  
	   1B1g    1.108403     9B1u    1.108403     9Ag     1.108403  

	Beta Occupied:                                                        

	   1B1u -118.606290     1Ag  -118.606290     2B1u  -12.317786  
	   2Ag   -12.317786     3B1u   -9.566315     3Ag    -9.566315  
	   1B2g   -9.566315     1B3g   -9.566315     1B3u   -9.566315  
	   1B2u   -9.566315     4Ag    -1.274392     4B1u   -1.274392  
	   5Ag    -0.588027     2B2u   -0.588025     2B3u   -0.588025  
	   2B3g   -0.588024     2B2g   -0.588024     5B1u   -0.588022  

	Beta Virtual:                                                         

	   6Ag     0.797229     3B3u    0.797262     3B2u    0.797262  
	   3B2g    0.797264     3B3g    0.797264     6B1u    0.797296  
	   7Ag     0.959749     7B1u    0.959749     4B2g    1.108403  
	   4B3g    1.108403     4B3u    1.108403     4B2u    1.108403  
	   8B1u    1.108403     1Au     1.108403     8Ag     1.108403  
	   1B1g    1.108403     9B1u    1.108403     9Ag     1.108403  

	Final Occupation by Irrep:
	         Ag   B1g   B2g   B3g    Au   B1u   B2u   B3u 
	DOCC [     5,    0,    2,    2,    0,    5,    2,    2 ]
	SOCC [     0,    0,    0,    0,    0,    0,    0,    0 ]

  Energy converged.

  @DF-UHF Final Energy: -1053.59973661312051

   => Energetics <=

    Nuclear Repulsion Energy =             25.3379431896295699
    One-Electron Energy =               -1507.2294136022626390
    Two-Electron Energy =                 428.2917337995125990
    DFT Exchange-Correlation Energy =       0.0000000000000000
    Empirical Dispersion Energy =           0.0000000000000000
    Total Energy =                      -1053.5997366131205126



Properties will be evaluated at   0.000000,   0.000000,   0.000000 Bohr
  ==> Properties <==


Properties computed using the SCF density density matrix
  Nuclear Dipole Moment: (a.u.)
     X:     0.0000      Y:     0.0000      Z:     0.0000

  Electronic Dipole Moment: (a.u.)
     X:     0.0000      Y:     0.0000      Z:     0.0000

  Dipole Moment: (a.u.)
     X:     0.0000      Y:     0.0000      Z:     0.0000     Total:     0.0000

  Dipole Moment: (Debye)
     X:     0.0000      Y:     0.0000      Z:     0.0000     Total:     0.0000


  Saving occupied orbitals to File 180.

*** tstop() called on cx1-12-6-2.cx1.hpc.ic.ac.uk at Tue Feb  4 11:31:51 2014
Module time:
	user time   =       0.42 seconds =       0.01 minutes
	system time =       0.01 seconds =       0.00 minutes
	total time  =          1 seconds =       0.02 minutes
Total time:
	user time   =      11.58 seconds =       0.19 minutes
	system time =       0.19 seconds =       0.00 minutes
	total time  =         26 seconds =       0.43 minutes

  //>>>>>>>>>>>>>>>>>>>>>>>>>>>>>>>>>>>//
  //               DFMP2               //
  //<<<<<<<<<<<<<<<<<<<<<<<<<<<<<<<<<<<//

  No DF_BASIS_MP2 auxiliary basis selected, defaulting to cc-pvdz-ri

*** tstart() called on cx1-12-6-2.cx1.hpc.ic.ac.uk
*** at Tue Feb  4 11:31:51 2014

	 --------------------------------------------------------
	                          DF-MP2                         
	      2nd-Order Density-Fitted Moller-Plesset Theory     
	              UMP2 Wavefunction,   1 Threads             
	                                                         
	        Rob Parrish, Justin Turney, Andy Simmonett,      
	           Ed Hohenstein, and C. David Sherrill          
	 --------------------------------------------------------

	 --------------------------------------------------------
	                 NBF =    36, NAUX =   152
	 --------------------------------------------------------
	   CLASS    FOCC     OCC    AOCC    AVIR     VIR    FVIR
	   ALPHA       0      18      18      18      18       0
	    BETA       0      18      18      18      18       0
	 --------------------------------------------------------

	----------------------------------------------------------
	 ==================> DF-MP2 Energies <=================== 
	----------------------------------------------------------
	 Reference Energy          =   -1053.5997366131205126 [H]
	 Singles Energy            =      -0.0000000000000000 [H]
	 Same-Spin Energy          =      -0.0806068919474505 [H]
	 Opposite-Spin Energy      =      -0.2105705146834739 [H]
	 Correlation Energy        =      -0.2911774066309245 [H]
	 Total Energy              =   -1053.8909140197513352 [H]
	----------------------------------------------------------
	 ================> DF-SCS-MP2 Energies <================= 
	----------------------------------------------------------
	 SCS Same-Spin Scale       =       0.3333333333333333 [-]
	 SCS Opposite-Spin Scale   =       1.2000000000000000 [-]
	 SCS Same-Spin Energy      =      -0.0268689639824835 [H]
	 SCS Opposite-Spin Energy  =      -0.2526846176201687 [H]
	 SCS Correlation Energy    =      -0.2795535816026522 [H]
	 SCS Total Energy          =   -1053.8792901947231258 [H]
	----------------------------------------------------------


*** tstop() called on cx1-12-6-2.cx1.hpc.ic.ac.uk at Tue Feb  4 11:31:51 2014
Module time:
	user time   =       0.33 seconds =       0.01 minutes
	system time =       0.00 seconds =       0.00 minutes
	total time  =          0 seconds =       0.00 minutes
Total time:
	user time   =      11.91 seconds =       0.20 minutes
	system time =       0.19 seconds =       0.00 minutes
	total time  =         26 seconds =       0.43 minutes
Setting geometry variable R to 7.000000

  No DF_BASIS_SCF auxiliary basis selected, defaulting to cc-pvdz-jkfit


*** tstart() called on cx1-12-6-2.cx1.hpc.ic.ac.uk
*** at Tue Feb  4 11:31:51 2014

	There are an even number of electrons - assuming singlet.
	Specify the multiplicity with the MULTP option in the
	input if this is incorrect


         ---------------------------------------------------------
                                   SCF
            by Justin Turney, Rob Parrish, and Andy Simmonett
                              UHF Reference
                        1 Threads,   3000 MiB Core
         ---------------------------------------------------------

  ==> Geometry <==

    Molecular point group: d2h
    Full point group: D_inf_h

    Geometry (in Angstrom), charge = 0, multiplicity = 1:

       Center              X                  Y                   Z       
    ------------   -----------------  -----------------  -----------------
          AR          0.000000000000     0.000000000000    -3.500000000000
          AR          0.000000000000     0.000000000000     3.500000000000

  Running in d2h symmetry.


	Rotational constants (cm^-1):
	A = **********    B =    0.01722   C =    0.01722

	Rotational constants (MHz):
	A = **********    B =  516.17829   C =  516.17829
  Nuclear repulsion =   24.493345083308576

  Charge       = 0
  Multiplicity = 1
  Electrons    = 36
  Nalpha       = 18
  Nbeta        = 18

  ==> Algorithm <==

  SCF Algorithm Type is DF.
  DIIS enabled.
  MOM disabled.
  Fractional occupation disabled.
  Guess Type is CORE.
  Energy threshold   = 1.00e-08
  Density threshold  = 1.00e-08
  Integral threshold = 0.00e+00

  ==> Primary Basis <==

  Basis Set: CC-PVDZ
    Number of shells: 16
    Number of basis function: 36
    Number of Cartesian functions: 38
    Spherical Harmonics?: true
    Max angular momentum: 2

  ==> Pre-Iterations <==

   -------------------------------------------------------
    Irrep   Nso     Nmo     Nalpha   Nbeta   Ndocc  Nsocc
   -------------------------------------------------------
     Ag         9       9       0       0       0       0
     B1g        1       1       0       0       0       0
     B2g        4       4       0       0       0       0
     B3g        4       4       0       0       0       0
     Au         1       1       0       0       0       0
     B1u        9       9       0       0       0       0
     B2u        4       4       0       0       0       0
     B3u        4       4       0       0       0       0
   -------------------------------------------------------
    Total      36      36      18      18      18       0
   -------------------------------------------------------

 OEINTS: Wrapper to libmints.
   by Justin Turney

   Calculation information:
      Number of atoms:                   2
      Number of AO shells:              16
      Number of SO shells:               8
      Number of primitives:            100
      Number of atomic orbitals:        38
      Number of basis functions:        36

      Number of irreps:                  8
      Number of functions per irrep: [   9    1    4    4    1    9    4    4 ]

      Overlap, kinetic, potential, dipole, and quadrupole integrals
        stored in file 35.

  ==> Integral Setup <==

  ==> DFJK: Density-Fitted J/K Matrices <==

    J tasked:                  Yes
    K tasked:                  Yes
    wK tasked:                  No
    OpenMP threads:              1
    Integrals threads:           1
    Memory (MB):              2145
    Algorithm:                Core
    Integral Cache:           NONE
    Schwarz Cutoff:          1E-12
    Fitting Condition:       1E-12

   => Auxiliary Basis Set <=

  Basis Set: cc-pvdz-jkfit
    Number of shells: 72
    Number of basis function: 224
    Number of Cartesian functions: 260
    Spherical Harmonics?: true
    Max angular momentum: 3

  Minimum eigenvalue in the overlap matrix is 1.1016109451E-01.
  Using Symmetric Orthogonalization.
  SCF Guess: Core (One-Electron) Hamiltonian.

  ==> Iterations <==

                           Total Energy        Delta E     RMS |[F,P]|

   @DF-UHF iter   1: -1046.75806635977005   -1.04676e+03   1.57586e-01 
   @DF-UHF iter   2: -1053.37520524714455   -6.61714e+00   5.22021e-02 DIIS
   @DF-UHF iter   3: -1053.59706765562487   -2.21862e-01   5.15991e-03 DIIS
   @DF-UHF iter   4: -1053.59970989051862   -2.64223e-03   5.99854e-04 DIIS
   @DF-UHF iter   5: -1053.59973579881716   -2.59083e-05   9.71848e-05 DIIS
   @DF-UHF iter   6: -1053.59973660817309   -8.09356e-07   5.04352e-06 DIIS
   @DF-UHF iter   7: -1053.59973661062986   -2.45677e-09   1.84451e-07 DIIS
   @DF-UHF iter   8: -1053.59973661063282   -2.95586e-12   2.48957e-08 DIIS
   @DF-UHF iter   9: -1053.59973661063304   -2.27374e-13   1.49487e-09 DIIS

  ==> Post-Iterations <==

   @Spin Contamination Metric:   2.131628207E-14
   @S^2 Expected:                0.000000000E+00
   @S^2 Observed:                2.131628207E-14
   @S   Expected:                0.000000000E+00
   @S   Observed:                0.000000000E+00

	Orbital Energies (a.u.)
	-----------------------

	Alpha Occupied:                                                       

	   1B1u -118.606290     1Ag  -118.606290     2B1u  -12.317786  
	   2Ag   -12.317786     3B1u   -9.566315     3Ag    -9.566315  
	   1B3g   -9.566315     1B2g   -9.566315     1B2u   -9.566315  
	   1B3u   -9.566315     4Ag    -1.274392     4B1u   -1.274392  
	   5Ag    -0.588026     2B3u   -0.588025     2B2u   -0.588025  
	   2B2g   -0.588024     2B3g   -0.588024     5B1u   -0.588023  

	Alpha Virtual:                                                        

	   6Ag     0.797249     3B3u    0.797263     3B2u    0.797263  
	   3B2g    0.797264     3B3g    0.797264     6B1u    0.797276  
	   7Ag     0.959749     7B1u    0.959749     4B2g    1.108403  
	   4B3g    1.108403     4B3u    1.108403     4B2u    1.108403  
	   8B1u    1.108403     1Au     1.108403     8Ag     1.108403  
	   1B1g    1.108403     9B1u    1.108403     9Ag     1.108403  

	Beta Occupied:                                                        

	   1B1u -118.606290     1Ag  -118.606290     2B1u  -12.317786  
	   2Ag   -12.317786     3B1u   -9.566315     3Ag    -9.566315  
	   1B3g   -9.566315     1B2g   -9.566315     1B2u   -9.566315  
	   1B3u   -9.566315     4Ag    -1.274392     4B1u   -1.274392  
	   5Ag    -0.588026     2B3u   -0.588025     2B2u   -0.588025  
	   2B2g   -0.588024     2B3g   -0.588024     5B1u   -0.588023  

	Beta Virtual:                                                         

	   6Ag     0.797249     3B3u    0.797263     3B2u    0.797263  
	   3B2g    0.797264     3B3g    0.797264     6B1u    0.797276  
	   7Ag     0.959749     7B1u    0.959749     4B2g    1.108403  
	   4B3g    1.108403     4B3u    1.108403     4B2u    1.108403  
	   8B1u    1.108403     1Au     1.108403     8Ag     1.108403  
	   1B1g    1.108403     9B1u    1.108403     9Ag     1.108403  

	Final Occupation by Irrep:
	         Ag   B1g   B2g   B3g    Au   B1u   B2u   B3u 
	DOCC [     5,    0,    2,    2,    0,    5,    2,    2 ]
	SOCC [     0,    0,    0,    0,    0,    0,    0,    0 ]

  Energy converged.

  @DF-UHF Final Energy: -1053.59973661063304

   => Energetics <=

    Nuclear Repulsion Energy =             24.4933450833085757
    One-Electron Energy =               -1505.5402178783051568
    Two-Electron Energy =                 427.4471361843634440
    DFT Exchange-Correlation Energy =       0.0000000000000000
    Empirical Dispersion Energy =           0.0000000000000000
    Total Energy =                      -1053.5997366106330446



Properties will be evaluated at   0.000000,   0.000000,   0.000000 Bohr
  ==> Properties <==


Properties computed using the SCF density density matrix
  Nuclear Dipole Moment: (a.u.)
     X:     0.0000      Y:     0.0000      Z:    -0.0000

  Electronic Dipole Moment: (a.u.)
     X:     0.0000      Y:     0.0000      Z:     0.0000

  Dipole Moment: (a.u.)
     X:     0.0000      Y:     0.0000      Z:    -0.0000     Total:     0.0000

  Dipole Moment: (Debye)
     X:     0.0000      Y:     0.0000      Z:    -0.0000     Total:     0.0000


  Saving occupied orbitals to File 180.

*** tstop() called on cx1-12-6-2.cx1.hpc.ic.ac.uk at Tue Feb  4 11:31:52 2014
Module time:
	user time   =       0.42 seconds =       0.01 minutes
	system time =       0.01 seconds =       0.00 minutes
	total time  =          1 seconds =       0.02 minutes
Total time:
	user time   =      12.35 seconds =       0.21 minutes
	system time =       0.20 seconds =       0.00 minutes
	total time  =         27 seconds =       0.45 minutes

  //>>>>>>>>>>>>>>>>>>>>>>>>>>>>>>>>>>>//
  //               DFMP2               //
  //<<<<<<<<<<<<<<<<<<<<<<<<<<<<<<<<<<<//

  No DF_BASIS_MP2 auxiliary basis selected, defaulting to cc-pvdz-ri

*** tstart() called on cx1-12-6-2.cx1.hpc.ic.ac.uk
*** at Tue Feb  4 11:31:52 2014

	 --------------------------------------------------------
	                          DF-MP2                         
	      2nd-Order Density-Fitted Moller-Plesset Theory     
	              UMP2 Wavefunction,   1 Threads             
	                                                         
	        Rob Parrish, Justin Turney, Andy Simmonett,      
	           Ed Hohenstein, and C. David Sherrill          
	 --------------------------------------------------------

	 --------------------------------------------------------
	                 NBF =    36, NAUX =   152
	 --------------------------------------------------------
	   CLASS    FOCC     OCC    AOCC    AVIR     VIR    FVIR
	   ALPHA       0      18      18      18      18       0
	    BETA       0      18      18      18      18       0
	 --------------------------------------------------------

	----------------------------------------------------------
	 ==================> DF-MP2 Energies <=================== 
	----------------------------------------------------------
	 Reference Energy          =   -1053.5997366106330446 [H]
	 Singles Energy            =      -0.0000000000000000 [H]
	 Same-Spin Energy          =      -0.0806064258761998 [H]
	 Opposite-Spin Energy      =      -0.2105700287859550 [H]
	 Correlation Energy        =      -0.2911764546621548 [H]
	 Total Energy              =   -1053.8909130652953081 [H]
	----------------------------------------------------------
	 ================> DF-SCS-MP2 Energies <================= 
	----------------------------------------------------------
	 SCS Same-Spin Scale       =       0.3333333333333333 [-]
	 SCS Opposite-Spin Scale   =       1.2000000000000000 [-]
	 SCS Same-Spin Energy      =      -0.0268688086253999 [H]
	 SCS Opposite-Spin Energy  =      -0.2526840345431459 [H]
	 SCS Correlation Energy    =      -0.2795528431685458 [H]
	 SCS Total Energy          =   -1053.8792894538016753 [H]
	----------------------------------------------------------


*** tstop() called on cx1-12-6-2.cx1.hpc.ic.ac.uk at Tue Feb  4 11:31:53 2014
Module time:
	user time   =       0.33 seconds =       0.01 minutes
	system time =       0.01 seconds =       0.00 minutes
	total time  =          1 seconds =       0.02 minutes
Total time:
	user time   =      12.68 seconds =       0.21 minutes
	system time =       0.21 seconds =       0.00 minutes
	total time  =         28 seconds =       0.47 minutes

*** PSI4 exiting successfully. Buy a developer a beer!
