    -----------------------------------------------------------------------
          PSI4: An Open-Source Ab Initio Electronic Structure Package
                              PSI 4.0.0-beta5+ Driver

               Git: Rev {master} eab4c2bf53d0cfe2fa7ff775dfb81b740d89e238

    J. M. Turney, A. C. Simmonett, R. M. Parrish, E. G. Hohenstein,
    F. A. Evangelista, J. T. Fermann, B. J. Mintz, L. A. Burns, J. J. Wilke,
    M. L. Abrams, N. J. Russ, M. L. Leininger, C. L. Janssen, E. T. Seidl,
    W. D. Allen, H. F. Schaefer, R. A. King, E. F. Valeev, C. D. Sherrill,
    and T. D. Crawford, WIREs Comput. Mol. Sci. 2, 556-565 (2012)
    (doi: 10.1002/wcms.93)

                         Additional Contributions by
    A. E. DePrince, M. Saitow, U. Bozkaya, A. Yu. Sokolov
    -----------------------------------------------------------------------

    Process ID:   8008
    PSI4DATADIR: /home/wv111/local/share/psi/

    Using LocalCommunicator (Number of processes = 1)

    Memory level set to 256.000 MB

  ==> Input File <==

--------------------------------------------------------------------------
memory 3000 mb

molecule dimer {
  He
--
  He 1 R
}
import numpy as np
rvals =  np.linspace(2.5, 6, num=32) 

set basis cc-pVDZ
set reference uhf

# Initialize a blank dictionary of counterpoise corrected energies
# (Need this for the syntax below to work)
ecp = {}

for R in rvals:
  dimer.R = R
  energy('mp2')
--------------------------------------------------------------------------

  Memory set to   3.000 GiB by Python script.
Setting geometry variable R to 2.500000

  No DF_BASIS_SCF auxiliary basis selected, defaulting to cc-pvdz-jkfit


*** tstart() called on cx1-12-6-2.cx1.hpc.ic.ac.uk
*** at Tue Feb  4 15:06:59 2014

	There are an even number of electrons - assuming singlet.
	Specify the multiplicity with the MULTP option in the
	input if this is incorrect


         ---------------------------------------------------------
                                   SCF
            by Justin Turney, Rob Parrish, and Andy Simmonett
                              UHF Reference
                        1 Threads,   3000 MiB Core
         ---------------------------------------------------------

  ==> Geometry <==

    Molecular point group: d2h
    Full point group: D_inf_h

    Geometry (in Angstrom), charge = 0, multiplicity = 1:

       Center              X                  Y                   Z       
    ------------   -----------------  -----------------  -----------------
          HE          0.000000000000     0.000000000000    -1.250000000000
          HE          0.000000000000     0.000000000000     1.250000000000

  Running in d2h symmetry.


	Rotational constants (cm^-1):
	A = **********    B =    1.34773   C =    1.34773

	Rotational constants (MHz):
	A = **********    B = 40404.02491   C = 40404.02491
  Nuclear repulsion =    0.846683533744001

  Charge       = 0
  Multiplicity = 1
  Electrons    = 4
  Nalpha       = 2
  Nbeta        = 2

  ==> Algorithm <==

  SCF Algorithm Type is DF.
  DIIS enabled.
  MOM disabled.
  Fractional occupation disabled.
  Guess Type is CORE.
  Energy threshold   = 1.00e-08
  Density threshold  = 1.00e-08
  Integral threshold = 0.00e+00

  ==> Primary Basis <==

  Basis Set: CC-PVDZ
    Number of shells: 6
    Number of basis function: 10
    Number of Cartesian functions: 10
    Spherical Harmonics?: true
    Max angular momentum: 1

  ==> Pre-Iterations <==

   -------------------------------------------------------
    Irrep   Nso     Nmo     Nalpha   Nbeta   Ndocc  Nsocc
   -------------------------------------------------------
     Ag         3       3       0       0       0       0
     B1g        0       0       0       0       0       0
     B2g        1       1       0       0       0       0
     B3g        1       1       0       0       0       0
     Au         0       0       0       0       0       0
     B1u        3       3       0       0       0       0
     B2u        1       1       0       0       0       0
     B3u        1       1       0       0       0       0
   -------------------------------------------------------
    Total      10      10       2       2       2       0
   -------------------------------------------------------

 OEINTS: Wrapper to libmints.
   by Justin Turney

   Calculation information:
      Number of atoms:                   2
      Number of AO shells:               6
      Number of SO shells:               3
      Number of primitives:             10
      Number of atomic orbitals:        10
      Number of basis functions:        10

      Number of irreps:                  8
      Number of functions per irrep: [   3    0    1    1    0    3    1    1 ]

      Overlap, kinetic, potential, dipole, and quadrupole integrals
        stored in file 35.

  ==> Integral Setup <==

 MINTS: Wrapper to libmints.
   by Justin Turney

   Calculation information:
      Number of atoms:                   2
      Number of AO shells:               6
      Number of SO shells:               3
      Number of primitives:             10
      Number of atomic orbitals:        10
      Number of basis functions:        10

      Number of irreps:                  8
      Integral cutoff                 0.00e+00
      Number of functions per irrep: [   3    0    1    1    0    3    1    1 ]

      Overlap, kinetic, potential, dipole, and quadrupole integrals
        stored in file 35.

      Computing two-electron integrals...done
      Computed 292 non-zero two-electron integrals.
        Stored in file 33.

	Batch   1 pq = [       0,      16] index = [             0,136]
  ==> DiskJK: Disk-Based J/K Matrices <==

    J tasked:                  Yes
    K tasked:                  Yes
    wK tasked:                  No
    Memory (MB):              2145
    Schwarz Cutoff:          1E-12

  Minimum eigenvalue in the overlap matrix is 3.5025010796E-01.
  Using Symmetric Orthogonalization.
  SCF Guess: Core (One-Electron) Hamiltonian.

  ==> Iterations <==

                        Total Energy        Delta E     RMS |[F,P]|

   @UHF iter   1:    -5.48157509693815   -5.48158e+00   1.44910e-01 
   @UHF iter   2:    -5.70864139420500   -2.27066e-01   1.22740e-02 DIIS
   @UHF iter   3:    -5.71017939477851   -1.53800e-03   1.19301e-04 DIIS
   @UHF iter   4:    -5.71017951931742   -1.24539e-07   1.00748e-05 DIIS
   @UHF iter   5:    -5.71017952034442   -1.02700e-09   1.63954e-07 DIIS
   @UHF iter   6:    -5.71017952034470   -2.79776e-13   5.22497e-09 DIIS

  ==> Post-Iterations <==

   @Spin Contamination Metric:  -8.881784197E-16
   @S^2 Expected:                0.000000000E+00
   @S^2 Observed:               -8.881784197E-16
   @S   Expected:                0.000000000E+00
   @S   Observed:                0.000000000E+00

	Orbital Energies (a.u.)
	-----------------------

	Alpha Occupied:                                                       

	   1Ag    -0.920639     1B1u   -0.907521  

	Alpha Virtual:                                                        

	   2Ag     1.329502     2B1u    1.472472     1B3u    2.524426  
	   1B2u    2.524426     1B2g    2.524447     1B3g    2.524447  
	   3Ag     2.524767     3B1u    2.526121  

	Beta Occupied:                                                        

	   1Ag    -0.920639     1B1u   -0.907521  

	Beta Virtual:                                                         

	   2Ag     1.329502     2B1u    1.472472     1B3u    2.524426  
	   1B2u    2.524426     1B2g    2.524447     1B3g    2.524447  
	   3Ag     2.524767     3B1u    2.526121  

	Final Occupation by Irrep:
	         Ag   B1g   B2g   B3g    Au   B1u   B2u   B3u 
	DOCC [     1,    0,    0,    0,    0,    1,    0,    0 ]
	SOCC [     0,    0,    0,    0,    0,    0,    0,    0 ]

  Energy converged.

  @UHF Final Energy:    -5.71017952034470

   => Energetics <=

    Nuclear Repulsion Energy =              0.8466835337440005
    One-Electron Energy =                  -9.4574069119300823
    Two-Electron Energy =                   2.9005438578413800
    DFT Exchange-Correlation Energy =       0.0000000000000000
    Empirical Dispersion Energy =           0.0000000000000000
    Total Energy =                         -5.7101795203447017



Properties will be evaluated at   0.000000,   0.000000,   0.000000 Bohr
  ==> Properties <==


Properties computed using the SCF density density matrix
  Nuclear Dipole Moment: (a.u.)
     X:     0.0000      Y:     0.0000      Z:     0.0000

  Electronic Dipole Moment: (a.u.)
     X:     0.0000      Y:     0.0000      Z:     0.0000

  Dipole Moment: (a.u.)
     X:     0.0000      Y:     0.0000      Z:     0.0000     Total:     0.0000

  Dipole Moment: (Debye)
     X:     0.0000      Y:     0.0000      Z:     0.0000     Total:     0.0000


  Saving occupied orbitals to File 180.

*** tstop() called on cx1-12-6-2.cx1.hpc.ic.ac.uk at Tue Feb  4 15:07:01 2014
Module time:
	user time   =       0.05 seconds =       0.00 minutes
	system time =       0.03 seconds =       0.00 minutes
	total time  =          2 seconds =       0.03 minutes
Total time:
	user time   =       0.05 seconds =       0.00 minutes
	system time =       0.03 seconds =       0.00 minutes
	total time  =          2 seconds =       0.03 minutes

  //>>>>>>>>>>>>>>>>>>>>>>>>>>>>>>>>>>>//
  //               DFMP2               //
  //<<<<<<<<<<<<<<<<<<<<<<<<<<<<<<<<<<<//

  No DF_BASIS_MP2 auxiliary basis selected, defaulting to cc-pvdz-ri

*** tstart() called on cx1-12-6-2.cx1.hpc.ic.ac.uk
*** at Tue Feb  4 15:07:01 2014

	 --------------------------------------------------------
	                          DF-MP2                         
	      2nd-Order Density-Fitted Moller-Plesset Theory     
	              UMP2 Wavefunction,   1 Threads             
	                                                         
	        Rob Parrish, Justin Turney, Andy Simmonett,      
	           Ed Hohenstein, and C. David Sherrill          
	 --------------------------------------------------------

	 --------------------------------------------------------
	                 NBF =    10, NAUX =    18
	 --------------------------------------------------------
	   CLASS    FOCC     OCC    AOCC    AVIR     VIR    FVIR
	   ALPHA       0       2       2       8       8       0
	    BETA       0       2       2       8       8       0
	 --------------------------------------------------------

	----------------------------------------------------------
	 ==================> DF-MP2 Energies <=================== 
	----------------------------------------------------------
	 Reference Energy          =      -5.7101795203447026 [H]
	 Singles Energy            =      -0.0000000000000000 [H]
	 Same-Spin Energy          =      -0.0000098297234175 [H]
	 Opposite-Spin Energy      =      -0.0516584901691997 [H]
	 Correlation Energy        =      -0.0516683198926172 [H]
	 Total Energy              =      -5.7618478402373201 [H]
	----------------------------------------------------------
	 ================> DF-SCS-MP2 Energies <================= 
	----------------------------------------------------------
	 SCS Same-Spin Scale       =       0.3333333333333333 [-]
	 SCS Opposite-Spin Scale   =       1.2000000000000000 [-]
	 SCS Same-Spin Energy      =      -0.0000032765744725 [H]
	 SCS Opposite-Spin Energy  =      -0.0619901882030397 [H]
	 SCS Correlation Energy    =      -0.0619934647775122 [H]
	 SCS Total Energy          =      -5.7721729851222143 [H]
	----------------------------------------------------------


*** tstop() called on cx1-12-6-2.cx1.hpc.ic.ac.uk at Tue Feb  4 15:07:02 2014
Module time:
	user time   =       0.06 seconds =       0.00 minutes
	system time =       0.00 seconds =       0.00 minutes
	total time  =          1 seconds =       0.02 minutes
Total time:
	user time   =       0.11 seconds =       0.00 minutes
	system time =       0.03 seconds =       0.00 minutes
	total time  =          3 seconds =       0.05 minutes
Setting geometry variable R to 2.612903

  No DF_BASIS_SCF auxiliary basis selected, defaulting to cc-pvdz-jkfit


*** tstart() called on cx1-12-6-2.cx1.hpc.ic.ac.uk
*** at Tue Feb  4 15:07:02 2014

	There are an even number of electrons - assuming singlet.
	Specify the multiplicity with the MULTP option in the
	input if this is incorrect


         ---------------------------------------------------------
                                   SCF
            by Justin Turney, Rob Parrish, and Andy Simmonett
                              UHF Reference
                        1 Threads,   3000 MiB Core
         ---------------------------------------------------------

  ==> Geometry <==

    Molecular point group: d2h
    Full point group: D_inf_h

    Geometry (in Angstrom), charge = 0, multiplicity = 1:

       Center              X                  Y                   Z       
    ------------   -----------------  -----------------  -----------------
          HE          0.000000000000     0.000000000000    -1.306451612903
          HE          0.000000000000     0.000000000000     1.306451612903

  Running in d2h symmetry.


	Rotational constants (cm^-1):
	A = **********    B =    1.23378   C =    1.23378

	Rotational constants (MHz):
	A = **********    B = 36987.75715   C = 36987.75715
  Nuclear repulsion =    0.810098442779753

  Charge       = 0
  Multiplicity = 1
  Electrons    = 4
  Nalpha       = 2
  Nbeta        = 2

  ==> Algorithm <==

  SCF Algorithm Type is DF.
  DIIS enabled.
  MOM disabled.
  Fractional occupation disabled.
  Guess Type is CORE.
  Energy threshold   = 1.00e-08
  Density threshold  = 1.00e-08
  Integral threshold = 0.00e+00

  ==> Primary Basis <==

  Basis Set: CC-PVDZ
    Number of shells: 6
    Number of basis function: 10
    Number of Cartesian functions: 10
    Spherical Harmonics?: true
    Max angular momentum: 1

  ==> Pre-Iterations <==

   -------------------------------------------------------
    Irrep   Nso     Nmo     Nalpha   Nbeta   Ndocc  Nsocc
   -------------------------------------------------------
     Ag         3       3       0       0       0       0
     B1g        0       0       0       0       0       0
     B2g        1       1       0       0       0       0
     B3g        1       1       0       0       0       0
     Au         0       0       0       0       0       0
     B1u        3       3       0       0       0       0
     B2u        1       1       0       0       0       0
     B3u        1       1       0       0       0       0
   -------------------------------------------------------
    Total      10      10       2       2       2       0
   -------------------------------------------------------

 OEINTS: Wrapper to libmints.
   by Justin Turney

   Calculation information:
      Number of atoms:                   2
      Number of AO shells:               6
      Number of SO shells:               3
      Number of primitives:             10
      Number of atomic orbitals:        10
      Number of basis functions:        10

      Number of irreps:                  8
      Number of functions per irrep: [   3    0    1    1    0    3    1    1 ]

      Overlap, kinetic, potential, dipole, and quadrupole integrals
        stored in file 35.

  ==> Integral Setup <==

 MINTS: Wrapper to libmints.
   by Justin Turney

   Calculation information:
      Number of atoms:                   2
      Number of AO shells:               6
      Number of SO shells:               3
      Number of primitives:             10
      Number of atomic orbitals:        10
      Number of basis functions:        10

      Number of irreps:                  8
      Integral cutoff                 0.00e+00
      Number of functions per irrep: [   3    0    1    1    0    3    1    1 ]

      Overlap, kinetic, potential, dipole, and quadrupole integrals
        stored in file 35.

      Computing two-electron integrals...done
      Computed 292 non-zero two-electron integrals.
        Stored in file 33.

	Batch   1 pq = [       0,      16] index = [             0,136]
  ==> DiskJK: Disk-Based J/K Matrices <==

    J tasked:                  Yes
    K tasked:                  Yes
    wK tasked:                  No
    Memory (MB):              2145
    Schwarz Cutoff:          1E-12

  Minimum eigenvalue in the overlap matrix is 3.5407168147E-01.
  Using Symmetric Orthogonalization.
  SCF Guess: Core (One-Electron) Hamiltonian.

  ==> Iterations <==

                        Total Energy        Delta E     RMS |[F,P]|

   @UHF iter   1:    -5.48197614685362   -5.48198e+00   1.44708e-01 
   @UHF iter   2:    -5.70872137429678   -2.26745e-01   1.22373e-02 DIIS
   @UHF iter   3:    -5.71025251079841   -1.53114e-03   1.13624e-04 DIIS
   @UHF iter   4:    -5.71025262500672   -1.14208e-07   1.01873e-05 DIIS
   @UHF iter   5:    -5.71025262606154   -1.05482e-09   1.15530e-07 DIIS
   @UHF iter   6:    -5.71025262606168   -1.37668e-13   3.73549e-09 DIIS

  ==> Post-Iterations <==

   @Spin Contamination Metric:   2.220446049E-15
   @S^2 Expected:                0.000000000E+00
   @S^2 Observed:                2.220446049E-15
   @S   Expected:                0.000000000E+00
   @S   Observed:                0.000000000E+00

	Orbital Energies (a.u.)
	-----------------------

	Alpha Occupied:                                                       

	   1Ag    -0.919060     1B1u   -0.909165  

	Alpha Virtual:                                                        

	   2Ag     1.341116     2B1u    1.458234     1B2u    2.524402  
	   1B3u    2.524402     1B2g    2.524405     1B3g    2.524405  
	   3Ag     2.524565     3B1u    2.525154  

	Beta Occupied:                                                        

	   1Ag    -0.919060     1B1u   -0.909165  

	Beta Virtual:                                                         

	   2Ag     1.341116     2B1u    1.458234     1B2u    2.524402  
	   1B3u    2.524402     1B2g    2.524405     1B3g    2.524405  
	   3Ag     2.524565     3B1u    2.525154  

	Final Occupation by Irrep:
	         Ag   B1g   B2g   B3g    Au   B1u   B2u   B3u 
	DOCC [     1,    0,    0,    0,    0,    1,    0,    0 ]
	SOCC [     0,    0,    0,    0,    0,    0,    0,    0 ]

  Energy converged.

  @UHF Final Energy:    -5.71025262606168

   => Energetics <=

    Nuclear Repulsion Energy =              0.8100984427797531
    One-Electron Energy =                  -9.3842526894331506
    Two-Electron Energy =                   2.8639016205917160
    DFT Exchange-Correlation Energy =       0.0000000000000000
    Empirical Dispersion Energy =           0.0000000000000000
    Total Energy =                         -5.7102526260616822



Properties will be evaluated at   0.000000,   0.000000,   0.000000 Bohr
  ==> Properties <==


Properties computed using the SCF density density matrix
  Nuclear Dipole Moment: (a.u.)
     X:     0.0000      Y:     0.0000      Z:     0.0000

  Electronic Dipole Moment: (a.u.)
     X:     0.0000      Y:     0.0000      Z:     0.0000

  Dipole Moment: (a.u.)
     X:     0.0000      Y:     0.0000      Z:     0.0000     Total:     0.0000

  Dipole Moment: (Debye)
     X:     0.0000      Y:     0.0000      Z:     0.0000     Total:     0.0000


  Saving occupied orbitals to File 180.

*** tstop() called on cx1-12-6-2.cx1.hpc.ic.ac.uk at Tue Feb  4 15:07:04 2014
Module time:
	user time   =       0.05 seconds =       0.00 minutes
	system time =       0.02 seconds =       0.00 minutes
	total time  =          2 seconds =       0.03 minutes
Total time:
	user time   =       0.17 seconds =       0.00 minutes
	system time =       0.05 seconds =       0.00 minutes
	total time  =          5 seconds =       0.08 minutes

  //>>>>>>>>>>>>>>>>>>>>>>>>>>>>>>>>>>>//
  //               DFMP2               //
  //<<<<<<<<<<<<<<<<<<<<<<<<<<<<<<<<<<<//

  No DF_BASIS_MP2 auxiliary basis selected, defaulting to cc-pvdz-ri

*** tstart() called on cx1-12-6-2.cx1.hpc.ic.ac.uk
*** at Tue Feb  4 15:07:04 2014

	 --------------------------------------------------------
	                          DF-MP2                         
	      2nd-Order Density-Fitted Moller-Plesset Theory     
	              UMP2 Wavefunction,   1 Threads             
	                                                         
	        Rob Parrish, Justin Turney, Andy Simmonett,      
	           Ed Hohenstein, and C. David Sherrill          
	 --------------------------------------------------------

	 --------------------------------------------------------
	                 NBF =    10, NAUX =    18
	 --------------------------------------------------------
	   CLASS    FOCC     OCC    AOCC    AVIR     VIR    FVIR
	   ALPHA       0       2       2       8       8       0
	    BETA       0       2       2       8       8       0
	 --------------------------------------------------------

	----------------------------------------------------------
	 ==================> DF-MP2 Energies <=================== 
	----------------------------------------------------------
	 Reference Energy          =      -5.7102526260616804 [H]
	 Singles Energy            =      -0.0000000000000000 [H]
	 Same-Spin Energy          =      -0.0000072007498345 [H]
	 Opposite-Spin Energy      =      -0.0516565911711659 [H]
	 Correlation Energy        =      -0.0516637919210004 [H]
	 Total Energy              =      -5.7619164179826807 [H]
	----------------------------------------------------------
	 ================> DF-SCS-MP2 Energies <================= 
	----------------------------------------------------------
	 SCS Same-Spin Scale       =       0.3333333333333333 [-]
	 SCS Opposite-Spin Scale   =       1.2000000000000000 [-]
	 SCS Same-Spin Energy      =      -0.0000024002499448 [H]
	 SCS Opposite-Spin Energy  =      -0.0619879094053991 [H]
	 SCS Correlation Energy    =      -0.0619903096553439 [H]
	 SCS Total Energy          =      -5.7722429357170242 [H]
	----------------------------------------------------------


*** tstop() called on cx1-12-6-2.cx1.hpc.ic.ac.uk at Tue Feb  4 15:07:04 2014
Module time:
	user time   =       0.06 seconds =       0.00 minutes
	system time =       0.00 seconds =       0.00 minutes
	total time  =          0 seconds =       0.00 minutes
Total time:
	user time   =       0.24 seconds =       0.00 minutes
	system time =       0.05 seconds =       0.00 minutes
	total time  =          5 seconds =       0.08 minutes
Setting geometry variable R to 2.725806

  No DF_BASIS_SCF auxiliary basis selected, defaulting to cc-pvdz-jkfit


*** tstart() called on cx1-12-6-2.cx1.hpc.ic.ac.uk
*** at Tue Feb  4 15:07:04 2014

	There are an even number of electrons - assuming singlet.
	Specify the multiplicity with the MULTP option in the
	input if this is incorrect


         ---------------------------------------------------------
                                   SCF
            by Justin Turney, Rob Parrish, and Andy Simmonett
                              UHF Reference
                        1 Threads,   3000 MiB Core
         ---------------------------------------------------------

  ==> Geometry <==

    Molecular point group: d2h
    Full point group: D_inf_h

    Geometry (in Angstrom), charge = 0, multiplicity = 1:

       Center              X                  Y                   Z       
    ------------   -----------------  -----------------  -----------------
          HE          0.000000000000     0.000000000000    -1.362903225806
          HE          0.000000000000     0.000000000000     1.362903225806

  Running in d2h symmetry.


	Rotational constants (cm^-1):
	A = **********    B =    1.13369   C =    1.13369

	Rotational constants (MHz):
	A = **********    B = 33987.13975   C = 33987.13975
  Nuclear repulsion =    0.776544069410178

  Charge       = 0
  Multiplicity = 1
  Electrons    = 4
  Nalpha       = 2
  Nbeta        = 2

  ==> Algorithm <==

  SCF Algorithm Type is DF.
  DIIS enabled.
  MOM disabled.
  Fractional occupation disabled.
  Guess Type is CORE.
  Energy threshold   = 1.00e-08
  Density threshold  = 1.00e-08
  Integral threshold = 0.00e+00

  ==> Primary Basis <==

  Basis Set: CC-PVDZ
    Number of shells: 6
    Number of basis function: 10
    Number of Cartesian functions: 10
    Spherical Harmonics?: true
    Max angular momentum: 1

  ==> Pre-Iterations <==

   -------------------------------------------------------
    Irrep   Nso     Nmo     Nalpha   Nbeta   Ndocc  Nsocc
   -------------------------------------------------------
     Ag         3       3       0       0       0       0
     B1g        0       0       0       0       0       0
     B2g        1       1       0       0       0       0
     B3g        1       1       0       0       0       0
     Au         0       0       0       0       0       0
     B1u        3       3       0       0       0       0
     B2u        1       1       0       0       0       0
     B3u        1       1       0       0       0       0
   -------------------------------------------------------
    Total      10      10       2       2       2       0
   -------------------------------------------------------

 OEINTS: Wrapper to libmints.
   by Justin Turney

   Calculation information:
      Number of atoms:                   2
      Number of AO shells:               6
      Number of SO shells:               3
      Number of primitives:             10
      Number of atomic orbitals:        10
      Number of basis functions:        10

      Number of irreps:                  8
      Number of functions per irrep: [   3    0    1    1    0    3    1    1 ]

      Overlap, kinetic, potential, dipole, and quadrupole integrals
        stored in file 35.

  ==> Integral Setup <==

 MINTS: Wrapper to libmints.
   by Justin Turney

   Calculation information:
      Number of atoms:                   2
      Number of AO shells:               6
      Number of SO shells:               3
      Number of primitives:             10
      Number of atomic orbitals:        10
      Number of basis functions:        10

      Number of irreps:                  8
      Integral cutoff                 0.00e+00
      Number of functions per irrep: [   3    0    1    1    0    3    1    1 ]

      Overlap, kinetic, potential, dipole, and quadrupole integrals
        stored in file 35.

      Computing two-electron integrals...done
      Computed 292 non-zero two-electron integrals.
        Stored in file 33.

	Batch   1 pq = [       0,      16] index = [             0,136]
  ==> DiskJK: Disk-Based J/K Matrices <==

    J tasked:                  Yes
    K tasked:                  Yes
    wK tasked:                  No
    Memory (MB):              2145
    Schwarz Cutoff:          1E-12

  Minimum eigenvalue in the overlap matrix is 3.5710582076E-01.
  Using Symmetric Orthogonalization.
  SCF Guess: Core (One-Electron) Hamiltonian.

  ==> Iterations <==

                        Total Energy        Delta E     RMS |[F,P]|

   @UHF iter   1:    -5.48228028669227   -5.48228e+00   1.44553e-01 
   @UHF iter   2:    -5.70876488013073   -2.26485e-01   1.22087e-02 DIIS
   @UHF iter   3:    -5.71029079967696   -1.52592e-03   1.09104e-04 DIIS
   @UHF iter   4:    -5.71029090607930   -1.06402e-07   1.02784e-05 DIIS
   @UHF iter   5:    -5.71029090715660   -1.07731e-09   6.64234e-08 DIIS
   @UHF iter   6:    -5.71029090715665   -4.61853e-14   2.37257e-09 DIIS

  ==> Post-Iterations <==

   @Spin Contamination Metric:  -8.881784197E-16
   @S^2 Expected:                0.000000000E+00
   @S^2 Observed:               -8.881784197E-16
   @S   Expected:                0.000000000E+00
   @S   Observed:                0.000000000E+00

	Orbital Energies (a.u.)
	-----------------------

	Alpha Occupied:                                                       

	   1Ag    -0.917852     1B1u   -0.910410  

	Alpha Virtual:                                                        

	   2Ag     1.351981     2B1u    1.445590     1B3g    2.524384  
	   1B2g    2.524384     1B3u    2.524386     1B2u    2.524386  
	   3Ag     2.524448     3B1u    2.524717  

	Beta Occupied:                                                        

	   1Ag    -0.917852     1B1u   -0.910410  

	Beta Virtual:                                                         

	   2Ag     1.351981     2B1u    1.445590     1B3g    2.524384  
	   1B2g    2.524384     1B3u    2.524386     1B2u    2.524386  
	   3Ag     2.524448     3B1u    2.524717  

	Final Occupation by Irrep:
	         Ag   B1g   B2g   B3g    Au   B1u   B2u   B3u 
	DOCC [     1,    0,    0,    0,    0,    1,    0,    0 ]
	SOCC [     0,    0,    0,    0,    0,    0,    0,    0 ]

  Energy converged.

  @UHF Final Energy:    -5.71029090715665

   => Energetics <=

    Nuclear Repulsion Energy =              0.7765440694101775
    One-Electron Energy =                  -9.3171459475994887
    Two-Electron Energy =                   2.8303109710326622
    DFT Exchange-Correlation Energy =       0.0000000000000000
    Empirical Dispersion Energy =           0.0000000000000000
    Total Energy =                         -5.7102909071566481



Properties will be evaluated at   0.000000,   0.000000,   0.000000 Bohr
  ==> Properties <==


Properties computed using the SCF density density matrix
  Nuclear Dipole Moment: (a.u.)
     X:     0.0000      Y:     0.0000      Z:     0.0000

  Electronic Dipole Moment: (a.u.)
     X:     0.0000      Y:     0.0000      Z:     0.0000

  Dipole Moment: (a.u.)
     X:     0.0000      Y:     0.0000      Z:     0.0000     Total:     0.0000

  Dipole Moment: (Debye)
     X:     0.0000      Y:     0.0000      Z:     0.0000     Total:     0.0000


  Saving occupied orbitals to File 180.

*** tstop() called on cx1-12-6-2.cx1.hpc.ic.ac.uk at Tue Feb  4 15:07:07 2014
Module time:
	user time   =       0.06 seconds =       0.00 minutes
	system time =       0.01 seconds =       0.00 minutes
	total time  =          3 seconds =       0.05 minutes
Total time:
	user time   =       0.31 seconds =       0.01 minutes
	system time =       0.06 seconds =       0.00 minutes
	total time  =          8 seconds =       0.13 minutes

  //>>>>>>>>>>>>>>>>>>>>>>>>>>>>>>>>>>>//
  //               DFMP2               //
  //<<<<<<<<<<<<<<<<<<<<<<<<<<<<<<<<<<<//

  No DF_BASIS_MP2 auxiliary basis selected, defaulting to cc-pvdz-ri

*** tstart() called on cx1-12-6-2.cx1.hpc.ic.ac.uk
*** at Tue Feb  4 15:07:07 2014

	 --------------------------------------------------------
	                          DF-MP2                         
	      2nd-Order Density-Fitted Moller-Plesset Theory     
	              UMP2 Wavefunction,   1 Threads             
	                                                         
	        Rob Parrish, Justin Turney, Andy Simmonett,      
	           Ed Hohenstein, and C. David Sherrill          
	 --------------------------------------------------------

	 --------------------------------------------------------
	                 NBF =    10, NAUX =    18
	 --------------------------------------------------------
	   CLASS    FOCC     OCC    AOCC    AVIR     VIR    FVIR
	   ALPHA       0       2       2       8       8       0
	    BETA       0       2       2       8       8       0
	 --------------------------------------------------------

	----------------------------------------------------------
	 ==================> DF-MP2 Energies <=================== 
	----------------------------------------------------------
	 Reference Energy          =      -5.7102909071566499 [H]
	 Singles Energy            =      -0.0000000000000000 [H]
	 Same-Spin Energy          =      -0.0000053984586110 [H]
	 Opposite-Spin Energy      =      -0.0516550086552655 [H]
	 Correlation Energy        =      -0.0516604071138765 [H]
	 Total Energy              =      -5.7619513142705268 [H]
	----------------------------------------------------------
	 ================> DF-SCS-MP2 Energies <================= 
	----------------------------------------------------------
	 SCS Same-Spin Scale       =       0.3333333333333333 [-]
	 SCS Opposite-Spin Scale   =       1.2000000000000000 [-]
	 SCS Same-Spin Energy      =      -0.0000017994862037 [H]
	 SCS Opposite-Spin Energy  =      -0.0619860103863186 [H]
	 SCS Correlation Energy    =      -0.0619878098725223 [H]
	 SCS Total Energy          =      -5.7722787170291721 [H]
	----------------------------------------------------------


*** tstop() called on cx1-12-6-2.cx1.hpc.ic.ac.uk at Tue Feb  4 15:07:07 2014
Module time:
	user time   =       0.06 seconds =       0.00 minutes
	system time =       0.00 seconds =       0.00 minutes
	total time  =          0 seconds =       0.00 minutes
Total time:
	user time   =       0.37 seconds =       0.01 minutes
	system time =       0.06 seconds =       0.00 minutes
	total time  =          8 seconds =       0.13 minutes
Setting geometry variable R to 2.838710

  No DF_BASIS_SCF auxiliary basis selected, defaulting to cc-pvdz-jkfit


*** tstart() called on cx1-12-6-2.cx1.hpc.ic.ac.uk
*** at Tue Feb  4 15:07:07 2014

	There are an even number of electrons - assuming singlet.
	Specify the multiplicity with the MULTP option in the
	input if this is incorrect


         ---------------------------------------------------------
                                   SCF
            by Justin Turney, Rob Parrish, and Andy Simmonett
                              UHF Reference
                        1 Threads,   3000 MiB Core
         ---------------------------------------------------------

  ==> Geometry <==

    Molecular point group: d2h
    Full point group: D_inf_h

    Geometry (in Angstrom), charge = 0, multiplicity = 1:

       Center              X                  Y                   Z       
    ------------   -----------------  -----------------  -----------------
          HE          0.000000000000     0.000000000000    -1.419354838710
          HE          0.000000000000     0.000000000000     1.419354838710

  Running in d2h symmetry.


	Rotational constants (cm^-1):
	A = **********    B =    1.04530   C =    1.04530

	Rotational constants (MHz):
	A = **********    B = 31337.38051   C = 31337.38051
  Nuclear repulsion =    0.745658793922273

  Charge       = 0
  Multiplicity = 1
  Electrons    = 4
  Nalpha       = 2
  Nbeta        = 2

  ==> Algorithm <==

  SCF Algorithm Type is DF.
  DIIS enabled.
  MOM disabled.
  Fractional occupation disabled.
  Guess Type is CORE.
  Energy threshold   = 1.00e-08
  Density threshold  = 1.00e-08
  Integral threshold = 0.00e+00

  ==> Primary Basis <==

  Basis Set: CC-PVDZ
    Number of shells: 6
    Number of basis function: 10
    Number of Cartesian functions: 10
    Spherical Harmonics?: true
    Max angular momentum: 1

  ==> Pre-Iterations <==

   -------------------------------------------------------
    Irrep   Nso     Nmo     Nalpha   Nbeta   Ndocc  Nsocc
   -------------------------------------------------------
     Ag         3       3       0       0       0       0
     B1g        0       0       0       0       0       0
     B2g        1       1       0       0       0       0
     B3g        1       1       0       0       0       0
     Au         0       0       0       0       0       0
     B1u        3       3       0       0       0       0
     B2u        1       1       0       0       0       0
     B3u        1       1       0       0       0       0
   -------------------------------------------------------
    Total      10      10       2       2       2       0
   -------------------------------------------------------

 OEINTS: Wrapper to libmints.
   by Justin Turney

   Calculation information:
      Number of atoms:                   2
      Number of AO shells:               6
      Number of SO shells:               3
      Number of primitives:             10
      Number of atomic orbitals:        10
      Number of basis functions:        10

      Number of irreps:                  8
      Number of functions per irrep: [   3    0    1    1    0    3    1    1 ]

      Overlap, kinetic, potential, dipole, and quadrupole integrals
        stored in file 35.

  ==> Integral Setup <==

 MINTS: Wrapper to libmints.
   by Justin Turney

   Calculation information:
      Number of atoms:                   2
      Number of AO shells:               6
      Number of SO shells:               3
      Number of primitives:             10
      Number of atomic orbitals:        10
      Number of basis functions:        10

      Number of irreps:                  8
      Integral cutoff                 0.00e+00
      Number of functions per irrep: [   3    0    1    1    0    3    1    1 ]

      Overlap, kinetic, potential, dipole, and quadrupole integrals
        stored in file 35.

      Computing two-electron integrals...done
      Computed 292 non-zero two-electron integrals.
        Stored in file 33.

	Batch   1 pq = [       0,      16] index = [             0,136]
  ==> DiskJK: Disk-Based J/K Matrices <==

    J tasked:                  Yes
    K tasked:                  Yes
    wK tasked:                  No
    Memory (MB):              2145
    Schwarz Cutoff:          1E-12

  Minimum eigenvalue in the overlap matrix is 3.5946492438E-01.
  Using Symmetric Orthogonalization.
  SCF Guess: Core (One-Electron) Hamiltonian.

  ==> Iterations <==

                        Total Energy        Delta E     RMS |[F,P]|

   @UHF iter   1:    -5.48251769022452   -5.48252e+00   1.44434e-01 
   @UHF iter   2:    -5.70878776194499   -2.26270e-01   1.21861e-02 DIIS
   @UHF iter   3:    -5.71030966976936   -1.52191e-03   1.05407e-04 DIIS
   @UHF iter   4:    -5.71030977005058   -1.00281e-07   1.03485e-05 DIIS
   @UHF iter   5:    -5.71030977114515   -1.09456e-09   3.20903e-08 DIIS
   @UHF iter   6:    -5.71030977114516   -1.06581e-14   1.33504e-09 DIIS

  ==> Post-Iterations <==

   @Spin Contamination Metric:   0.000000000E+00
   @S^2 Expected:                0.000000000E+00
   @S^2 Observed:                0.000000000E+00
   @S   Expected:                0.000000000E+00
   @S   Observed:                0.000000000E+00

	Orbital Energies (a.u.)
	-----------------------

	Alpha Occupied:                                                       

	   1Ag    -0.916929     1B1u   -0.911353  

	Alpha Virtual:                                                        

	   2Ag     1.361648     2B1u    1.434785     1B2g    2.524375  
	   1B3g    2.524375     1B2u    2.524378     1B3u    2.524378  
	   3Ag     2.524393     3B1u    2.524523  

	Beta Occupied:                                                        

	   1Ag    -0.916929     1B1u   -0.911353  

	Beta Virtual:                                                         

	   2Ag     1.361648     2B1u    1.434785     1B2g    2.524375  
	   1B3g    2.524375     1B2u    2.524378     1B3u    2.524378  
	   3Ag     2.524393     3B1u    2.524523  

	Final Occupation by Irrep:
	         Ag   B1g   B2g   B3g    Au   B1u   B2u   B3u 
	DOCC [     1,    0,    0,    0,    0,    1,    0,    0 ]
	SOCC [     0,    0,    0,    0,    0,    0,    0,    0 ]

  Energy converged.

  @UHF Final Energy:    -5.71030977114516

   => Energetics <=

    Nuclear Repulsion Energy =              0.7456587939222730
    One-Electron Energy =                  -9.2553735698687447
    Two-Electron Energy =                   2.7994050048013150
    DFT Exchange-Correlation Energy =       0.0000000000000000
    Empirical Dispersion Energy =           0.0000000000000000
    Total Energy =                         -5.7103097711451571



Properties will be evaluated at   0.000000,   0.000000,   0.000000 Bohr
  ==> Properties <==


Properties computed using the SCF density density matrix
  Nuclear Dipole Moment: (a.u.)
     X:     0.0000      Y:     0.0000      Z:     0.0000

  Electronic Dipole Moment: (a.u.)
     X:     0.0000      Y:     0.0000      Z:     0.0000

  Dipole Moment: (a.u.)
     X:     0.0000      Y:     0.0000      Z:     0.0000     Total:     0.0000

  Dipole Moment: (Debye)
     X:     0.0000      Y:     0.0000      Z:     0.0000     Total:     0.0000


  Saving occupied orbitals to File 180.

*** tstop() called on cx1-12-6-2.cx1.hpc.ic.ac.uk at Tue Feb  4 15:07:09 2014
Module time:
	user time   =       0.05 seconds =       0.00 minutes
	system time =       0.02 seconds =       0.00 minutes
	total time  =          2 seconds =       0.03 minutes
Total time:
	user time   =       0.44 seconds =       0.01 minutes
	system time =       0.08 seconds =       0.00 minutes
	total time  =         10 seconds =       0.17 minutes

  //>>>>>>>>>>>>>>>>>>>>>>>>>>>>>>>>>>>//
  //               DFMP2               //
  //<<<<<<<<<<<<<<<<<<<<<<<<<<<<<<<<<<<//

  No DF_BASIS_MP2 auxiliary basis selected, defaulting to cc-pvdz-ri

*** tstart() called on cx1-12-6-2.cx1.hpc.ic.ac.uk
*** at Tue Feb  4 15:07:09 2014

	 --------------------------------------------------------
	                          DF-MP2                         
	      2nd-Order Density-Fitted Moller-Plesset Theory     
	              UMP2 Wavefunction,   1 Threads             
	                                                         
	        Rob Parrish, Justin Turney, Andy Simmonett,      
	           Ed Hohenstein, and C. David Sherrill          
	 --------------------------------------------------------

	 --------------------------------------------------------
	                 NBF =    10, NAUX =    18
	 --------------------------------------------------------
	   CLASS    FOCC     OCC    AOCC    AVIR     VIR    FVIR
	   ALPHA       0       2       2       8       8       0
	    BETA       0       2       2       8       8       0
	 --------------------------------------------------------

	----------------------------------------------------------
	 ==================> DF-MP2 Energies <=================== 
	----------------------------------------------------------
	 Reference Energy          =      -5.7103097711451571 [H]
	 Singles Energy            =      -0.0000000000000000 [H]
	 Same-Spin Energy          =      -0.0000041335580116 [H]
	 Opposite-Spin Energy      =      -0.0516537157980449 [H]
	 Correlation Energy        =      -0.0516578493560565 [H]
	 Total Energy              =      -5.7619676205012134 [H]
	----------------------------------------------------------
	 ================> DF-SCS-MP2 Energies <================= 
	----------------------------------------------------------
	 SCS Same-Spin Scale       =       0.3333333333333333 [-]
	 SCS Opposite-Spin Scale   =       1.2000000000000000 [-]
	 SCS Same-Spin Energy      =      -0.0000013778526705 [H]
	 SCS Opposite-Spin Energy  =      -0.0619844589576539 [H]
	 SCS Correlation Energy    =      -0.0619858368103244 [H]
	 SCS Total Energy          =      -5.7722956079554812 [H]
	----------------------------------------------------------


*** tstop() called on cx1-12-6-2.cx1.hpc.ic.ac.uk at Tue Feb  4 15:07:10 2014
Module time:
	user time   =       0.06 seconds =       0.00 minutes
	system time =       0.00 seconds =       0.00 minutes
	total time  =          1 seconds =       0.02 minutes
Total time:
	user time   =       0.50 seconds =       0.01 minutes
	system time =       0.08 seconds =       0.00 minutes
	total time  =         11 seconds =       0.18 minutes
Setting geometry variable R to 2.951613

  No DF_BASIS_SCF auxiliary basis selected, defaulting to cc-pvdz-jkfit


*** tstart() called on cx1-12-6-2.cx1.hpc.ic.ac.uk
*** at Tue Feb  4 15:07:10 2014

	There are an even number of electrons - assuming singlet.
	Specify the multiplicity with the MULTP option in the
	input if this is incorrect


         ---------------------------------------------------------
                                   SCF
            by Justin Turney, Rob Parrish, and Andy Simmonett
                              UHF Reference
                        1 Threads,   3000 MiB Core
         ---------------------------------------------------------

  ==> Geometry <==

    Molecular point group: d2h
    Full point group: D_inf_h

    Geometry (in Angstrom), charge = 0, multiplicity = 1:

       Center              X                  Y                   Z       
    ------------   -----------------  -----------------  -----------------
          HE          0.000000000000     0.000000000000    -1.475806451613
          HE          0.000000000000     0.000000000000     1.475806451613

  Running in d2h symmetry.


	Rotational constants (cm^-1):
	A = **********    B =    0.96686   C =    0.96686

	Rotational constants (MHz):
	A = **********    B = 28985.83710   C = 28985.83710
  Nuclear repulsion =    0.717136326395191

  Charge       = 0
  Multiplicity = 1
  Electrons    = 4
  Nalpha       = 2
  Nbeta        = 2

  ==> Algorithm <==

  SCF Algorithm Type is DF.
  DIIS enabled.
  MOM disabled.
  Fractional occupation disabled.
  Guess Type is CORE.
  Energy threshold   = 1.00e-08
  Density threshold  = 1.00e-08
  Integral threshold = 0.00e+00

  ==> Primary Basis <==

  Basis Set: CC-PVDZ
    Number of shells: 6
    Number of basis function: 10
    Number of Cartesian functions: 10
    Spherical Harmonics?: true
    Max angular momentum: 1

  ==> Pre-Iterations <==

   -------------------------------------------------------
    Irrep   Nso     Nmo     Nalpha   Nbeta   Ndocc  Nsocc
   -------------------------------------------------------
     Ag         3       3       0       0       0       0
     B1g        0       0       0       0       0       0
     B2g        1       1       0       0       0       0
     B3g        1       1       0       0       0       0
     Au         0       0       0       0       0       0
     B1u        3       3       0       0       0       0
     B2u        1       1       0       0       0       0
     B3u        1       1       0       0       0       0
   -------------------------------------------------------
    Total      10      10       2       2       2       0
   -------------------------------------------------------

 OEINTS: Wrapper to libmints.
   by Justin Turney

   Calculation information:
      Number of atoms:                   2
      Number of AO shells:               6
      Number of SO shells:               3
      Number of primitives:             10
      Number of atomic orbitals:        10
      Number of basis functions:        10

      Number of irreps:                  8
      Number of functions per irrep: [   3    0    1    1    0    3    1    1 ]

      Overlap, kinetic, potential, dipole, and quadrupole integrals
        stored in file 35.

  ==> Integral Setup <==

 MINTS: Wrapper to libmints.
   by Justin Turney

   Calculation information:
      Number of atoms:                   2
      Number of AO shells:               6
      Number of SO shells:               3
      Number of primitives:             10
      Number of atomic orbitals:        10
      Number of basis functions:        10

      Number of irreps:                  8
      Integral cutoff                 0.00e+00
      Number of functions per irrep: [   3    0    1    1    0    3    1    1 ]

      Overlap, kinetic, potential, dipole, and quadrupole integrals
        stored in file 35.

      Computing two-electron integrals...done
      Computed 292 non-zero two-electron integrals.
        Stored in file 33.

	Batch   1 pq = [       0,      16] index = [             0,136]
  ==> DiskJK: Disk-Based J/K Matrices <==

    J tasked:                  Yes
    K tasked:                  Yes
    wK tasked:                  No
    Memory (MB):              2145
    Schwarz Cutoff:          1E-12

  Minimum eigenvalue in the overlap matrix is 3.6126220504E-01.
  Using Symmetric Orthogonalization.
  SCF Guess: Core (One-Electron) Hamiltonian.

  ==> Iterations <==

                        Total Energy        Delta E     RMS |[F,P]|

   @UHF iter   1:    -5.48270719601478   -5.48271e+00   1.44339e-01 
   @UHF iter   2:    -5.70879939278834   -2.26092e-01   1.21681e-02 DIIS
   @UHF iter   3:    -5.71031815997590   -1.51877e-03   1.02303e-04 DIIS
   @UHF iter   4:    -5.71031825529036   -9.53145e-08   1.04018e-05 DIIS
   @UHF iter   5:    -5.71031825639796   -1.10760e-09   2.57072e-08 DIIS
   @UHF iter   6:    -5.71031825639797   -7.10543e-15   6.38806e-10 DIIS

  ==> Post-Iterations <==

   @Spin Contamination Metric:  -2.220446049E-15
   @S^2 Expected:                0.000000000E+00
   @S^2 Observed:               -2.220446049E-15
   @S   Expected:                0.000000000E+00
   @S   Observed:                0.000000000E+00

	Orbital Energies (a.u.)
	-----------------------

	Alpha Occupied:                                                       

	   1Ag    -0.916225     1B1u   -0.912067  

	Alpha Virtual:                                                        

	   2Ag     1.369901     2B1u    1.425841     1B3g    2.524371  
	   1B2g    2.524371     3Ag     2.524372     1B2u    2.524374  
	   1B3u    2.524374     3B1u    2.524437  

	Beta Occupied:                                                        

	   1Ag    -0.916225     1B1u   -0.912067  

	Beta Virtual:                                                         

	   2Ag     1.369901     2B1u    1.425841     1B3g    2.524371  
	   1B2g    2.524371     3Ag     2.524372     1B2u    2.524374  
	   1B3u    2.524374     3B1u    2.524437  

	Final Occupation by Irrep:
	         Ag   B1g   B2g   B3g    Au   B1u   B2u   B3u 
	DOCC [     1,    0,    0,    0,    0,    1,    0,    0 ]
	SOCC [     0,    0,    0,    0,    0,    0,    0,    0 ]

  Energy converged.

  @UHF Final Energy:    -5.71031825639797

   => Energetics <=

    Nuclear Repulsion Energy =              0.7171363263951913
    One-Electron Energy =                  -9.1983265151983691
    Two-Electron Energy =                   2.7708719324052105
    DFT Exchange-Correlation Energy =       0.0000000000000000
    Empirical Dispersion Energy =           0.0000000000000000
    Total Energy =                         -5.7103182563979669



Properties will be evaluated at   0.000000,   0.000000,   0.000000 Bohr
  ==> Properties <==


Properties computed using the SCF density density matrix
  Nuclear Dipole Moment: (a.u.)
     X:     0.0000      Y:     0.0000      Z:     0.0000

  Electronic Dipole Moment: (a.u.)
     X:     0.0000      Y:     0.0000      Z:     0.0000

  Dipole Moment: (a.u.)
     X:     0.0000      Y:     0.0000      Z:     0.0000     Total:     0.0000

  Dipole Moment: (Debye)
     X:     0.0000      Y:     0.0000      Z:     0.0000     Total:     0.0000


  Saving occupied orbitals to File 180.

*** tstop() called on cx1-12-6-2.cx1.hpc.ic.ac.uk at Tue Feb  4 15:07:12 2014
Module time:
	user time   =       0.05 seconds =       0.00 minutes
	system time =       0.01 seconds =       0.00 minutes
	total time  =          2 seconds =       0.03 minutes
Total time:
	user time   =       0.57 seconds =       0.01 minutes
	system time =       0.09 seconds =       0.00 minutes
	total time  =         13 seconds =       0.22 minutes

  //>>>>>>>>>>>>>>>>>>>>>>>>>>>>>>>>>>>//
  //               DFMP2               //
  //<<<<<<<<<<<<<<<<<<<<<<<<<<<<<<<<<<<//

  No DF_BASIS_MP2 auxiliary basis selected, defaulting to cc-pvdz-ri

*** tstart() called on cx1-12-6-2.cx1.hpc.ic.ac.uk
*** at Tue Feb  4 15:07:12 2014

	 --------------------------------------------------------
	                          DF-MP2                         
	      2nd-Order Density-Fitted Moller-Plesset Theory     
	              UMP2 Wavefunction,   1 Threads             
	                                                         
	        Rob Parrish, Justin Turney, Andy Simmonett,      
	           Ed Hohenstein, and C. David Sherrill          
	 --------------------------------------------------------

	 --------------------------------------------------------
	                 NBF =    10, NAUX =    18
	 --------------------------------------------------------
	   CLASS    FOCC     OCC    AOCC    AVIR     VIR    FVIR
	   ALPHA       0       2       2       8       8       0
	    BETA       0       2       2       8       8       0
	 --------------------------------------------------------

	----------------------------------------------------------
	 ==================> DF-MP2 Energies <=================== 
	----------------------------------------------------------
	 Reference Energy          =      -5.7103182563979669 [H]
	 Singles Energy            =      -0.0000000000000000 [H]
	 Same-Spin Energy          =      -0.0000032225786228 [H]
	 Opposite-Spin Energy      =      -0.0516526831701317 [H]
	 Correlation Energy        =      -0.0516559057487546 [H]
	 Total Energy              =      -5.7619741621467213 [H]
	----------------------------------------------------------
	 ================> DF-SCS-MP2 Energies <================= 
	----------------------------------------------------------
	 SCS Same-Spin Scale       =       0.3333333333333333 [-]
	 SCS Opposite-Spin Scale   =       1.2000000000000000 [-]
	 SCS Same-Spin Energy      =      -0.0000010741928743 [H]
	 SCS Opposite-Spin Energy  =      -0.0619832198041581 [H]
	 SCS Correlation Energy    =      -0.0619842939970324 [H]
	 SCS Total Energy          =      -5.7723025503949996 [H]
	----------------------------------------------------------


*** tstop() called on cx1-12-6-2.cx1.hpc.ic.ac.uk at Tue Feb  4 15:07:12 2014
Module time:
	user time   =       0.06 seconds =       0.00 minutes
	system time =       0.00 seconds =       0.00 minutes
	total time  =          0 seconds =       0.00 minutes
Total time:
	user time   =       0.63 seconds =       0.01 minutes
	system time =       0.09 seconds =       0.00 minutes
	total time  =         13 seconds =       0.22 minutes
Setting geometry variable R to 3.064516

  No DF_BASIS_SCF auxiliary basis selected, defaulting to cc-pvdz-jkfit


*** tstart() called on cx1-12-6-2.cx1.hpc.ic.ac.uk
*** at Tue Feb  4 15:07:12 2014

	There are an even number of electrons - assuming singlet.
	Specify the multiplicity with the MULTP option in the
	input if this is incorrect


         ---------------------------------------------------------
                                   SCF
            by Justin Turney, Rob Parrish, and Andy Simmonett
                              UHF Reference
                        1 Threads,   3000 MiB Core
         ---------------------------------------------------------

  ==> Geometry <==

    Molecular point group: d2h
    Full point group: D_inf_h

    Geometry (in Angstrom), charge = 0, multiplicity = 1:

       Center              X                  Y                   Z       
    ------------   -----------------  -----------------  -----------------
          HE          0.000000000000     0.000000000000    -1.532258064516
          HE          0.000000000000     0.000000000000     1.532258064516

  Running in d2h symmetry.


	Rotational constants (cm^-1):
	A = **********    B =    0.89693   C =    0.89693

	Rotational constants (MHz):
	A = **********    B = 26889.38223   C = 26889.38223
  Nuclear repulsion =    0.690715514370105

  Charge       = 0
  Multiplicity = 1
  Electrons    = 4
  Nalpha       = 2
  Nbeta        = 2

  ==> Algorithm <==

  SCF Algorithm Type is DF.
  DIIS enabled.
  MOM disabled.
  Fractional occupation disabled.
  Guess Type is CORE.
  Energy threshold   = 1.00e-08
  Density threshold  = 1.00e-08
  Integral threshold = 0.00e+00

  ==> Primary Basis <==

  Basis Set: CC-PVDZ
    Number of shells: 6
    Number of basis function: 10
    Number of Cartesian functions: 10
    Spherical Harmonics?: true
    Max angular momentum: 1

  ==> Pre-Iterations <==

   -------------------------------------------------------
    Irrep   Nso     Nmo     Nalpha   Nbeta   Ndocc  Nsocc
   -------------------------------------------------------
     Ag         3       3       0       0       0       0
     B1g        0       0       0       0       0       0
     B2g        1       1       0       0       0       0
     B3g        1       1       0       0       0       0
     Au         0       0       0       0       0       0
     B1u        3       3       0       0       0       0
     B2u        1       1       0       0       0       0
     B3u        1       1       0       0       0       0
   -------------------------------------------------------
    Total      10      10       2       2       2       0
   -------------------------------------------------------

 OEINTS: Wrapper to libmints.
   by Justin Turney

   Calculation information:
      Number of atoms:                   2
      Number of AO shells:               6
      Number of SO shells:               3
      Number of primitives:             10
      Number of atomic orbitals:        10
      Number of basis functions:        10

      Number of irreps:                  8
      Number of functions per irrep: [   3    0    1    1    0    3    1    1 ]

      Overlap, kinetic, potential, dipole, and quadrupole integrals
        stored in file 35.

  ==> Integral Setup <==

 MINTS: Wrapper to libmints.
   by Justin Turney

   Calculation information:
      Number of atoms:                   2
      Number of AO shells:               6
      Number of SO shells:               3
      Number of primitives:             10
      Number of atomic orbitals:        10
      Number of basis functions:        10

      Number of irreps:                  8
      Integral cutoff                 0.00e+00
      Number of functions per irrep: [   3    0    1    1    0    3    1    1 ]

      Overlap, kinetic, potential, dipole, and quadrupole integrals
        stored in file 35.

      Computing two-electron integrals...done
      Computed 292 non-zero two-electron integrals.
        Stored in file 33.

	Batch   1 pq = [       0,      16] index = [             0,136]
  ==> DiskJK: Disk-Based J/K Matrices <==

    J tasked:                  Yes
    K tasked:                  Yes
    wK tasked:                  No
    Memory (MB):              2145
    Schwarz Cutoff:          1E-12

  Minimum eigenvalue in the overlap matrix is 3.6260473698E-01.
  Using Symmetric Orthogonalization.
  SCF Guess: Core (One-Electron) Hamiltonian.

  ==> Iterations <==

                        Total Energy        Delta E     RMS |[F,P]|

   @UHF iter   1:    -5.48286110734465   -5.48286e+00   1.44262e-01 
   @UHF iter   2:    -5.70880516882513   -2.25944e-01   1.21535e-02 DIIS
   @UHF iter   3:    -5.71032142682037   -1.51626e-03   9.96442e-05 DIIS
   @UHF iter   4:    -5.71032151799863   -9.11783e-08   1.04432e-05 DIIS
   @UHF iter   5:    -5.71032151911627   -1.11765e-09   2.82182e-08 DIIS
   @UHF iter   6:    -5.71032151911628   -8.88178e-15   2.18390e-10 DIIS

  ==> Post-Iterations <==

   @Spin Contamination Metric:  -3.552713679E-15
   @S^2 Expected:                0.000000000E+00
   @S^2 Observed:               -3.552713679E-15
   @S   Expected:                0.000000000E+00
   @S   Observed:                0.000000000E+00

	Orbital Energies (a.u.)
	-----------------------

	Alpha Occupied:                                                       

	   1Ag    -0.915689     1B1u   -0.912607  

	Alpha Virtual:                                                        

	   2Ag     1.376701     2B1u    1.418640     3Ag     2.524366  
	   1B3g    2.524370     1B2g    2.524370     1B2u    2.524372  
	   1B3u    2.524372     3B1u    2.524400  

	Beta Occupied:                                                        

	   1Ag    -0.915689     1B1u   -0.912607  

	Beta Virtual:                                                         

	   2Ag     1.376701     2B1u    1.418640     3Ag     2.524366  
	   1B3g    2.524370     1B2g    2.524370     1B2u    2.524372  
	   1B3u    2.524372     3B1u    2.524400  

	Final Occupation by Irrep:
	         Ag   B1g   B2g   B3g    Au   B1u   B2u   B3u 
	DOCC [     1,    0,    0,    0,    0,    1,    0,    0 ]
	SOCC [     0,    0,    0,    0,    0,    0,    0,    0 ]

  Energy converged.

  @UHF Final Energy:    -5.71032151911628

   => Energetics <=

    Nuclear Repulsion Energy =              0.6907155143701051
    One-Electron Energy =                  -9.1454833614670683
    Two-Electron Energy =                   2.7444463279806808
    DFT Exchange-Correlation Energy =       0.0000000000000000
    Empirical Dispersion Energy =           0.0000000000000000
    Total Energy =                         -5.7103215191162828



Properties will be evaluated at   0.000000,   0.000000,   0.000000 Bohr
  ==> Properties <==


Properties computed using the SCF density density matrix
  Nuclear Dipole Moment: (a.u.)
     X:     0.0000      Y:     0.0000      Z:     0.0000

  Electronic Dipole Moment: (a.u.)
     X:     0.0000      Y:     0.0000      Z:     0.0000

  Dipole Moment: (a.u.)
     X:     0.0000      Y:     0.0000      Z:     0.0000     Total:     0.0000

  Dipole Moment: (Debye)
     X:     0.0000      Y:     0.0000      Z:     0.0000     Total:     0.0000


  Saving occupied orbitals to File 180.

*** tstop() called on cx1-12-6-2.cx1.hpc.ic.ac.uk at Tue Feb  4 15:07:15 2014
Module time:
	user time   =       0.05 seconds =       0.00 minutes
	system time =       0.02 seconds =       0.00 minutes
	total time  =          3 seconds =       0.05 minutes
Total time:
	user time   =       0.70 seconds =       0.01 minutes
	system time =       0.11 seconds =       0.00 minutes
	total time  =         16 seconds =       0.27 minutes

  //>>>>>>>>>>>>>>>>>>>>>>>>>>>>>>>>>>>//
  //               DFMP2               //
  //<<<<<<<<<<<<<<<<<<<<<<<<<<<<<<<<<<<//

  No DF_BASIS_MP2 auxiliary basis selected, defaulting to cc-pvdz-ri

*** tstart() called on cx1-12-6-2.cx1.hpc.ic.ac.uk
*** at Tue Feb  4 15:07:15 2014

	 --------------------------------------------------------
	                          DF-MP2                         
	      2nd-Order Density-Fitted Moller-Plesset Theory     
	              UMP2 Wavefunction,   1 Threads             
	                                                         
	        Rob Parrish, Justin Turney, Andy Simmonett,      
	           Ed Hohenstein, and C. David Sherrill          
	 --------------------------------------------------------

	 --------------------------------------------------------
	                 NBF =    10, NAUX =    18
	 --------------------------------------------------------
	   CLASS    FOCC     OCC    AOCC    AVIR     VIR    FVIR
	   ALPHA       0       2       2       8       8       0
	    BETA       0       2       2       8       8       0
	 --------------------------------------------------------

	----------------------------------------------------------
	 ==================> DF-MP2 Energies <=================== 
	----------------------------------------------------------
	 Reference Energy          =      -5.7103215191162828 [H]
	 Singles Energy            =      -0.0000000000000000 [H]
	 Same-Spin Energy          =      -0.0000025498750921 [H]
	 Opposite-Spin Energy      =      -0.0516518755011208 [H]
	 Correlation Energy        =      -0.0516544253762130 [H]
	 Total Energy              =      -5.7619759444924954 [H]
	----------------------------------------------------------
	 ================> DF-SCS-MP2 Energies <================= 
	----------------------------------------------------------
	 SCS Same-Spin Scale       =       0.3333333333333333 [-]
	 SCS Opposite-Spin Scale   =       1.2000000000000000 [-]
	 SCS Same-Spin Energy      =      -0.0000008499583640 [H]
	 SCS Opposite-Spin Energy  =      -0.0619822506013450 [H]
	 SCS Correlation Energy    =      -0.0619831005597090 [H]
	 SCS Total Energy          =      -5.7723046196759915 [H]
	----------------------------------------------------------


*** tstop() called on cx1-12-6-2.cx1.hpc.ic.ac.uk at Tue Feb  4 15:07:15 2014
Module time:
	user time   =       0.06 seconds =       0.00 minutes
	system time =       0.00 seconds =       0.00 minutes
	total time  =          0 seconds =       0.00 minutes
Total time:
	user time   =       0.76 seconds =       0.01 minutes
	system time =       0.11 seconds =       0.00 minutes
	total time  =         16 seconds =       0.27 minutes
Setting geometry variable R to 3.177419

  No DF_BASIS_SCF auxiliary basis selected, defaulting to cc-pvdz-jkfit


*** tstart() called on cx1-12-6-2.cx1.hpc.ic.ac.uk
*** at Tue Feb  4 15:07:15 2014

	There are an even number of electrons - assuming singlet.
	Specify the multiplicity with the MULTP option in the
	input if this is incorrect


         ---------------------------------------------------------
                                   SCF
            by Justin Turney, Rob Parrish, and Andy Simmonett
                              UHF Reference
                        1 Threads,   3000 MiB Core
         ---------------------------------------------------------

  ==> Geometry <==

    Molecular point group: d2h
    Full point group: D_inf_h

    Geometry (in Angstrom), charge = 0, multiplicity = 1:

       Center              X                  Y                   Z       
    ------------   -----------------  -----------------  -----------------
          HE          0.000000000000     0.000000000000    -1.588709677419
          HE          0.000000000000     0.000000000000     1.588709677419

  Running in d2h symmetry.


	Rotational constants (cm^-1):
	A = **********    B =    0.83432   C =    0.83432

	Rotational constants (MHz):
	A = **********    B = 25012.41203   C = 25012.41203
  Nuclear repulsion =    0.666172323504163

  Charge       = 0
  Multiplicity = 1
  Electrons    = 4
  Nalpha       = 2
  Nbeta        = 2

  ==> Algorithm <==

  SCF Algorithm Type is DF.
  DIIS enabled.
  MOM disabled.
  Fractional occupation disabled.
  Guess Type is CORE.
  Energy threshold   = 1.00e-08
  Density threshold  = 1.00e-08
  Integral threshold = 0.00e+00

  ==> Primary Basis <==

  Basis Set: CC-PVDZ
    Number of shells: 6
    Number of basis function: 10
    Number of Cartesian functions: 10
    Spherical Harmonics?: true
    Max angular momentum: 1

  ==> Pre-Iterations <==

   -------------------------------------------------------
    Irrep   Nso     Nmo     Nalpha   Nbeta   Ndocc  Nsocc
   -------------------------------------------------------
     Ag         3       3       0       0       0       0
     B1g        0       0       0       0       0       0
     B2g        1       1       0       0       0       0
     B3g        1       1       0       0       0       0
     Au         0       0       0       0       0       0
     B1u        3       3       0       0       0       0
     B2u        1       1       0       0       0       0
     B3u        1       1       0       0       0       0
   -------------------------------------------------------
    Total      10      10       2       2       2       0
   -------------------------------------------------------

 OEINTS: Wrapper to libmints.
   by Justin Turney

   Calculation information:
      Number of atoms:                   2
      Number of AO shells:               6
      Number of SO shells:               3
      Number of primitives:             10
      Number of atomic orbitals:        10
      Number of basis functions:        10

      Number of irreps:                  8
      Number of functions per irrep: [   3    0    1    1    0    3    1    1 ]

      Overlap, kinetic, potential, dipole, and quadrupole integrals
        stored in file 35.

  ==> Integral Setup <==

 MINTS: Wrapper to libmints.
   by Justin Turney

   Calculation information:
      Number of atoms:                   2
      Number of AO shells:               6
      Number of SO shells:               3
      Number of primitives:             10
      Number of atomic orbitals:        10
      Number of basis functions:        10

      Number of irreps:                  8
      Integral cutoff                 0.00e+00
      Number of functions per irrep: [   3    0    1    1    0    3    1    1 ]

      Overlap, kinetic, potential, dipole, and quadrupole integrals
        stored in file 35.

      Computing two-electron integrals...done
      Computed 292 non-zero two-electron integrals.
        Stored in file 33.

	Batch   1 pq = [       0,      16] index = [             0,136]
  ==> DiskJK: Disk-Based J/K Matrices <==

    J tasked:                  Yes
    K tasked:                  Yes
    wK tasked:                  No
    Memory (MB):              2145
    Schwarz Cutoff:          1E-12

  Minimum eigenvalue in the overlap matrix is 3.6358867123E-01.
  Using Symmetric Orthogonalization.
  SCF Guess: Core (One-Electron) Hamiltonian.

  ==> Iterations <==

                        Total Energy        Delta E     RMS |[F,P]|

   @UHF iter   1:    -5.48298782343307   -5.48299e+00   1.44200e-01 
   @UHF iter   2:    -5.70880807774623   -2.25820e-01   1.21415e-02 DIIS
   @UHF iter   3:    -5.71032229167279   -1.51421e-03   9.73346e-05 DIIS
   @UHF iter   4:    -5.71032237934605   -8.76733e-08   1.04767e-05 DIIS
   @UHF iter   5:    -5.71032238047179   -1.12573e-09   2.59037e-08 DIIS
   @UHF iter   6:    -5.71032238047180   -8.88178e-15   5.33738e-11 DIIS

  ==> Post-Iterations <==

   @Spin Contamination Metric:   3.552713679E-15
   @S^2 Expected:                0.000000000E+00
   @S^2 Observed:                3.552713679E-15
   @S   Expected:                0.000000000E+00
   @S   Observed:                0.000000000E+00

	Orbital Energies (a.u.)
	-----------------------

	Alpha Occupied:                                                       

	   1Ag    -0.915282     1B1u   -0.913015  

	Alpha Virtual:                                                        

	   2Ag     1.382136     2B1u    1.412983     3Ag     2.524367  
	   1B3g    2.524371     1B2g    2.524371     1B3u    2.524371  
	   1B2u    2.524371     3B1u    2.524384  

	Beta Occupied:                                                        

	   1Ag    -0.915282     1B1u   -0.913015  

	Beta Virtual:                                                         

	   2Ag     1.382136     2B1u    1.412983     3Ag     2.524367  
	   1B3g    2.524371     1B2g    2.524371     1B3u    2.524371  
	   1B2u    2.524371     3B1u    2.524384  

	Final Occupation by Irrep:
	         Ag   B1g   B2g   B3g    Au   B1u   B2u   B3u 
	DOCC [     1,    0,    0,    0,    0,    1,    0,    0 ]
	SOCC [     0,    0,    0,    0,    0,    0,    0,    0 ]

  Energy converged.

  @UHF Final Energy:    -5.71032238047180

   => Energetics <=

    Nuclear Repulsion Energy =              0.6661723235041627
    One-Electron Energy =                  -9.0963960417032332
    Two-Electron Energy =                   2.7199013377272756
    DFT Exchange-Correlation Energy =       0.0000000000000000
    Empirical Dispersion Energy =           0.0000000000000000
    Total Energy =                         -5.7103223804717942



Properties will be evaluated at   0.000000,   0.000000,   0.000000 Bohr
  ==> Properties <==


Properties computed using the SCF density density matrix
  Nuclear Dipole Moment: (a.u.)
     X:     0.0000      Y:     0.0000      Z:     0.0000

  Electronic Dipole Moment: (a.u.)
     X:     0.0000      Y:     0.0000      Z:     0.0000

  Dipole Moment: (a.u.)
     X:     0.0000      Y:     0.0000      Z:     0.0000     Total:     0.0000

  Dipole Moment: (Debye)
     X:     0.0000      Y:     0.0000      Z:     0.0000     Total:     0.0000


  Saving occupied orbitals to File 180.

*** tstop() called on cx1-12-6-2.cx1.hpc.ic.ac.uk at Tue Feb  4 15:07:17 2014
Module time:
	user time   =       0.05 seconds =       0.00 minutes
	system time =       0.01 seconds =       0.00 minutes
	total time  =          2 seconds =       0.03 minutes
Total time:
	user time   =       0.83 seconds =       0.01 minutes
	system time =       0.12 seconds =       0.00 minutes
	total time  =         18 seconds =       0.30 minutes

  //>>>>>>>>>>>>>>>>>>>>>>>>>>>>>>>>>>>//
  //               DFMP2               //
  //<<<<<<<<<<<<<<<<<<<<<<<<<<<<<<<<<<<//

  No DF_BASIS_MP2 auxiliary basis selected, defaulting to cc-pvdz-ri

*** tstart() called on cx1-12-6-2.cx1.hpc.ic.ac.uk
*** at Tue Feb  4 15:07:17 2014

	 --------------------------------------------------------
	                          DF-MP2                         
	      2nd-Order Density-Fitted Moller-Plesset Theory     
	              UMP2 Wavefunction,   1 Threads             
	                                                         
	        Rob Parrish, Justin Turney, Andy Simmonett,      
	           Ed Hohenstein, and C. David Sherrill          
	 --------------------------------------------------------

	 --------------------------------------------------------
	                 NBF =    10, NAUX =    18
	 --------------------------------------------------------
	   CLASS    FOCC     OCC    AOCC    AVIR     VIR    FVIR
	   ALPHA       0       2       2       8       8       0
	    BETA       0       2       2       8       8       0
	 --------------------------------------------------------

	----------------------------------------------------------
	 ==================> DF-MP2 Energies <=================== 
	----------------------------------------------------------
	 Reference Energy          =      -5.7103223804717951 [H]
	 Singles Energy            =      -0.0000000000000000 [H]
	 Same-Spin Energy          =      -0.0000020420681737 [H]
	 Opposite-Spin Energy      =      -0.0516512540126365 [H]
	 Correlation Energy        =      -0.0516532960808102 [H]
	 Total Energy              =      -5.7619756765526056 [H]
	----------------------------------------------------------
	 ================> DF-SCS-MP2 Energies <================= 
	----------------------------------------------------------
	 SCS Same-Spin Scale       =       0.3333333333333333 [-]
	 SCS Opposite-Spin Scale   =       1.2000000000000000 [-]
	 SCS Same-Spin Energy      =      -0.0000006806893912 [H]
	 SCS Opposite-Spin Energy  =      -0.0619815048151638 [H]
	 SCS Correlation Energy    =      -0.0619821855045551 [H]
	 SCS Total Energy          =      -5.7723045659763503 [H]
	----------------------------------------------------------


*** tstop() called on cx1-12-6-2.cx1.hpc.ic.ac.uk at Tue Feb  4 15:07:18 2014
Module time:
	user time   =       0.06 seconds =       0.00 minutes
	system time =       0.00 seconds =       0.00 minutes
	total time  =          1 seconds =       0.02 minutes
Total time:
	user time   =       0.90 seconds =       0.02 minutes
	system time =       0.12 seconds =       0.00 minutes
	total time  =         19 seconds =       0.32 minutes
Setting geometry variable R to 3.290323

  No DF_BASIS_SCF auxiliary basis selected, defaulting to cc-pvdz-jkfit


*** tstart() called on cx1-12-6-2.cx1.hpc.ic.ac.uk
*** at Tue Feb  4 15:07:18 2014

	There are an even number of electrons - assuming singlet.
	Specify the multiplicity with the MULTP option in the
	input if this is incorrect


         ---------------------------------------------------------
                                   SCF
            by Justin Turney, Rob Parrish, and Andy Simmonett
                              UHF Reference
                        1 Threads,   3000 MiB Core
         ---------------------------------------------------------

  ==> Geometry <==

    Molecular point group: d2h
    Full point group: D_inf_h

    Geometry (in Angstrom), charge = 0, multiplicity = 1:

       Center              X                  Y                   Z       
    ------------   -----------------  -----------------  -----------------
          HE          0.000000000000     0.000000000000    -1.645161290323
          HE          0.000000000000     0.000000000000     1.645161290323

  Running in d2h symmetry.


	Rotational constants (cm^-1):
	A = **********    B =    0.77805   C =    0.77805

	Rotational constants (MHz):
	A = **********    B = 23325.32436   C = 23325.32436
  Nuclear repulsion =    0.643313469266274

  Charge       = 0
  Multiplicity = 1
  Electrons    = 4
  Nalpha       = 2
  Nbeta        = 2

  ==> Algorithm <==

  SCF Algorithm Type is DF.
  DIIS enabled.
  MOM disabled.
  Fractional occupation disabled.
  Guess Type is CORE.
  Energy threshold   = 1.00e-08
  Density threshold  = 1.00e-08
  Integral threshold = 0.00e+00

  ==> Primary Basis <==

  Basis Set: CC-PVDZ
    Number of shells: 6
    Number of basis function: 10
    Number of Cartesian functions: 10
    Spherical Harmonics?: true
    Max angular momentum: 1

  ==> Pre-Iterations <==

   -------------------------------------------------------
    Irrep   Nso     Nmo     Nalpha   Nbeta   Ndocc  Nsocc
   -------------------------------------------------------
     Ag         3       3       0       0       0       0
     B1g        0       0       0       0       0       0
     B2g        1       1       0       0       0       0
     B3g        1       1       0       0       0       0
     Au         0       0       0       0       0       0
     B1u        3       3       0       0       0       0
     B2u        1       1       0       0       0       0
     B3u        1       1       0       0       0       0
   -------------------------------------------------------
    Total      10      10       2       2       2       0
   -------------------------------------------------------

 OEINTS: Wrapper to libmints.
   by Justin Turney

   Calculation information:
      Number of atoms:                   2
      Number of AO shells:               6
      Number of SO shells:               3
      Number of primitives:             10
      Number of atomic orbitals:        10
      Number of basis functions:        10

      Number of irreps:                  8
      Number of functions per irrep: [   3    0    1    1    0    3    1    1 ]

      Overlap, kinetic, potential, dipole, and quadrupole integrals
        stored in file 35.

  ==> Integral Setup <==

 MINTS: Wrapper to libmints.
   by Justin Turney

   Calculation information:
      Number of atoms:                   2
      Number of AO shells:               6
      Number of SO shells:               3
      Number of primitives:             10
      Number of atomic orbitals:        10
      Number of basis functions:        10

      Number of irreps:                  8
      Integral cutoff                 0.00e+00
      Number of functions per irrep: [   3    0    1    1    0    3    1    1 ]

      Overlap, kinetic, potential, dipole, and quadrupole integrals
        stored in file 35.

      Computing two-electron integrals...done
      Computed 292 non-zero two-electron integrals.
        Stored in file 33.

	Batch   1 pq = [       0,      16] index = [             0,136]
  ==> DiskJK: Disk-Based J/K Matrices <==

    J tasked:                  Yes
    K tasked:                  Yes
    wK tasked:                  No
    Memory (MB):              2145
    Schwarz Cutoff:          1E-12

  Minimum eigenvalue in the overlap matrix is 3.6429665666E-01.
  Using Symmetric Orthogonalization.
  SCF Guess: Core (One-Electron) Hamiltonian.

  ==> Iterations <==

                        Total Energy        Delta E     RMS |[F,P]|

   @UHF iter   1:    -5.48309329706909   -5.48309e+00   1.44148e-01 
   @UHF iter   2:    -5.70880968507298   -2.25716e-01   1.21314e-02 DIIS
   @UHF iter   3:    -5.71032220605943   -1.51252e-03   9.53123e-05 DIIS
   @UHF iter   4:    -5.71032229073014   -8.46707e-08   1.05052e-05 DIIS
   @UHF iter   5:    -5.71032229186267   -1.13253e-09   2.05189e-08 DIIS
   @UHF iter   6:    -5.71032229186267   -3.55271e-15   2.86254e-09 DIIS

  ==> Post-Iterations <==

   @Spin Contamination Metric:  -1.776356839E-15
   @S^2 Expected:                0.000000000E+00
   @S^2 Observed:               -1.776356839E-15
   @S   Expected:                0.000000000E+00
[...]
    ------------   -----------------  -----------------  -----------------
          HE          0.000000000000     0.000000000000    -2.943548387097
          HE          0.000000000000     0.000000000000     2.943548387097

  Running in d2h symmetry.


	Rotational constants (cm^-1):
	A = **********    B =    0.24304   C =    0.24304

	Rotational constants (MHz):
	A = **********    B = 7286.22029   C = 7286.22029
  Nuclear repulsion =    0.359550541726904

  Charge       = 0
  Multiplicity = 1
  Electrons    = 4
  Nalpha       = 2
  Nbeta        = 2

  ==> Algorithm <==

  SCF Algorithm Type is DF.
  DIIS enabled.
  MOM disabled.
  Fractional occupation disabled.
  Guess Type is CORE.
  Energy threshold   = 1.00e-08
  Density threshold  = 1.00e-08
  Integral threshold = 0.00e+00

  ==> Primary Basis <==

  Basis Set: CC-PVDZ
    Number of shells: 6
    Number of basis function: 10
    Number of Cartesian functions: 10
    Spherical Harmonics?: true
    Max angular momentum: 1

  ==> Pre-Iterations <==

   -------------------------------------------------------
    Irrep   Nso     Nmo     Nalpha   Nbeta   Ndocc  Nsocc
   -------------------------------------------------------
     Ag         3       3       0       0       0       0
     B1g        0       0       0       0       0       0
     B2g        1       1       0       0       0       0
     B3g        1       1       0       0       0       0
     Au         0       0       0       0       0       0
     B1u        3       3       0       0       0       0
     B2u        1       1       0       0       0       0
     B3u        1       1       0       0       0       0
   -------------------------------------------------------
    Total      10      10       2       2       2       0
   -------------------------------------------------------

 OEINTS: Wrapper to libmints.
   by Justin Turney

   Calculation information:
      Number of atoms:                   2
      Number of AO shells:               6
      Number of SO shells:               3
      Number of primitives:             10
      Number of atomic orbitals:        10
      Number of basis functions:        10

      Number of irreps:                  8
      Number of functions per irrep: [   3    0    1    1    0    3    1    1 ]

      Overlap, kinetic, potential, dipole, and quadrupole integrals
        stored in file 35.

  ==> Integral Setup <==

 MINTS: Wrapper to libmints.
   by Justin Turney

   Calculation information:
      Number of atoms:                   2
      Number of AO shells:               6
      Number of SO shells:               3
      Number of primitives:             10
      Number of atomic orbitals:        10
      Number of basis functions:        10

      Number of irreps:                  8
      Integral cutoff                 0.00e+00
      Number of functions per irrep: [   3    0    1    1    0    3    1    1 ]

      Overlap, kinetic, potential, dipole, and quadrupole integrals
        stored in file 35.

      Computing two-electron integrals...done
      Computed 292 non-zero two-electron integrals.
        Stored in file 33.

	Batch   1 pq = [       0,      16] index = [             0,136]
  ==> DiskJK: Disk-Based J/K Matrices <==

    J tasked:                  Yes
    K tasked:                  Yes
    wK tasked:                  No
    Memory (MB):              2145
    Schwarz Cutoff:          1E-12

  Minimum eigenvalue in the overlap matrix is 3.6583226328E-01.
  Using Symmetric Orthogonalization.
  SCF Guess: Core (One-Electron) Hamiltonian.

  ==> Iterations <==

                        Total Energy        Delta E     RMS |[F,P]|

   @UHF iter   1:    -5.48372547684745   -5.48373e+00   1.43842e-01 
   @UHF iter   2:    -5.70881865865882   -2.25093e-01   1.20700e-02 DIIS
   @UHF iter   3:    -5.71032088882555   -1.50223e-03   8.03745e-05 DIIS
   @UHF iter   4:    -5.71032095330121   -6.44757e-08   1.07259e-05 DIIS
   @UHF iter   5:    -5.71032095448548   -1.18427e-09   3.75803e-09 DIIS

  ==> Post-Iterations <==

   @Spin Contamination Metric:   4.440892099E-16
   @S^2 Expected:                0.000000000E+00
   @S^2 Observed:                4.440892099E-16
   @S   Expected:                0.000000000E+00
   @S   Observed:                0.000000000E+00

	Orbital Energies (a.u.)
	-----------------------

	Alpha Occupied:                                                       

	   1Ag    -0.914148     1B1u   -0.914148  

	Alpha Virtual:                                                        

	   2Ag     1.397442     2B1u    1.397442     3Ag     2.524372  
	   1B2u    2.524372     1B3u    2.524372     1B3g    2.524372  
	   1B2g    2.524372     3B1u    2.524372  

	Beta Occupied:                                                        

	   1Ag    -0.914148     1B1u   -0.914148  

	Beta Virtual:                                                         

	   2Ag     1.397442     2B1u    1.397442     3Ag     2.524372  
	   1B2u    2.524372     1B3u    2.524372     1B3g    2.524372  
	   1B2g    2.524372     3B1u    2.524372  

	Final Occupation by Irrep:
	         Ag   B1g   B2g   B3g    Au   B1u   B2u   B3u 
	DOCC [     1,    0,    0,    0,    0,    1,    0,    0 ]
	SOCC [     0,    0,    0,    0,    0,    0,    0,    0 ]

  Energy converged.

  @UHF Final Energy:    -5.71032095448548

   => Energetics <=

    Nuclear Repulsion Energy =              0.3595505417269044
    One-Electron Energy =                  -8.4831512991127145
    Two-Electron Energy =                   2.4132798029003277
    DFT Exchange-Correlation Energy =       0.0000000000000000
    Empirical Dispersion Energy =           0.0000000000000000
    Total Energy =                         -5.7103209544854829



Properties will be evaluated at   0.000000,   0.000000,   0.000000 Bohr
  ==> Properties <==


Properties computed using the SCF density density matrix
  Nuclear Dipole Moment: (a.u.)
     X:     0.0000      Y:     0.0000      Z:     0.0000

  Electronic Dipole Moment: (a.u.)
     X:     0.0000      Y:     0.0000      Z:     0.0000

  Dipole Moment: (a.u.)
     X:     0.0000      Y:     0.0000      Z:     0.0000     Total:     0.0000

  Dipole Moment: (Debye)
     X:     0.0000      Y:     0.0000      Z:     0.0000     Total:     0.0000


  Saving occupied orbitals to File 180.

*** tstop() called on cx1-12-6-2.cx1.hpc.ic.ac.uk at Tue Feb  4 15:08:15 2014
Module time:
	user time   =       0.05 seconds =       0.00 minutes
	system time =       0.01 seconds =       0.00 minutes
	total time  =          1 seconds =       0.02 minutes
Total time:
	user time   =       4.02 seconds =       0.07 minutes
	system time =       0.44 seconds =       0.01 minutes
	total time  =         76 seconds =       1.27 minutes

  //>>>>>>>>>>>>>>>>>>>>>>>>>>>>>>>>>>>//
  //               DFMP2               //
  //<<<<<<<<<<<<<<<<<<<<<<<<<<<<<<<<<<<//

  No DF_BASIS_MP2 auxiliary basis selected, defaulting to cc-pvdz-ri

*** tstart() called on cx1-12-6-2.cx1.hpc.ic.ac.uk
*** at Tue Feb  4 15:08:15 2014

	 --------------------------------------------------------
	                          DF-MP2                         
	      2nd-Order Density-Fitted Moller-Plesset Theory     
	              UMP2 Wavefunction,   1 Threads             
	                                                         
	        Rob Parrish, Justin Turney, Andy Simmonett,      
	           Ed Hohenstein, and C. David Sherrill          
	 --------------------------------------------------------

	 --------------------------------------------------------
	                 NBF =    10, NAUX =    18
	 --------------------------------------------------------
	   CLASS    FOCC     OCC    AOCC    AVIR     VIR    FVIR
	   ALPHA       0       2       2       8       8       0
	    BETA       0       2       2       8       8       0
	 --------------------------------------------------------

	----------------------------------------------------------
	 ==================> DF-MP2 Energies <=================== 
	----------------------------------------------------------
	 Reference Energy          =      -5.7103209544854820 [H]
	 Singles Energy            =      -0.0000000000000000 [H]
	 Same-Spin Energy          =      -0.0000000502184389 [H]
	 Opposite-Spin Energy      =      -0.0516490406026984 [H]
	 Correlation Energy        =      -0.0516490908211373 [H]
	 Total Energy              =      -5.7619700453066196 [H]
	----------------------------------------------------------
	 ================> DF-SCS-MP2 Energies <================= 
	----------------------------------------------------------
	 SCS Same-Spin Scale       =       0.3333333333333333 [-]
	 SCS Opposite-Spin Scale   =       1.2000000000000000 [-]
	 SCS Same-Spin Energy      =      -0.0000000167394796 [H]
	 SCS Opposite-Spin Energy  =      -0.0619788487232381 [H]
	 SCS Correlation Energy    =      -0.0619788654627177 [H]
	 SCS Total Energy          =      -5.7722998199481994 [H]
	----------------------------------------------------------


*** tstop() called on cx1-12-6-2.cx1.hpc.ic.ac.uk at Tue Feb  4 15:08:16 2014
Module time:
	user time   =       0.07 seconds =       0.00 minutes
	system time =       0.00 seconds =       0.00 minutes
	total time  =          1 seconds =       0.02 minutes
Total time:
	user time   =       4.09 seconds =       0.07 minutes
	system time =       0.44 seconds =       0.01 minutes
	total time  =         77 seconds =       1.28 minutes
Setting geometry variable R to 6.000000

  No DF_BASIS_SCF auxiliary basis selected, defaulting to cc-pvdz-jkfit


*** tstart() called on cx1-12-6-2.cx1.hpc.ic.ac.uk
*** at Tue Feb  4 15:08:16 2014

	There are an even number of electrons - assuming singlet.
	Specify the multiplicity with the MULTP option in the
	input if this is incorrect


         ---------------------------------------------------------
                                   SCF
            by Justin Turney, Rob Parrish, and Andy Simmonett
                              UHF Reference
                        1 Threads,   3000 MiB Core
         ---------------------------------------------------------

  ==> Geometry <==

    Molecular point group: d2h
    Full point group: D_inf_h

    Geometry (in Angstrom), charge = 0, multiplicity = 1:

       Center              X                  Y                   Z       
    ------------   -----------------  -----------------  -----------------
          HE          0.000000000000     0.000000000000    -3.000000000000
          HE          0.000000000000     0.000000000000     3.000000000000

  Running in d2h symmetry.


	Rotational constants (cm^-1):
	A = **********    B =    0.23398   C =    0.23398

	Rotational constants (MHz):
	A = **********    B = 7014.58766   C = 7014.58766
  Nuclear repulsion =    0.352784805726667

  Charge       = 0
  Multiplicity = 1
  Electrons    = 4
  Nalpha       = 2
  Nbeta        = 2

  ==> Algorithm <==

  SCF Algorithm Type is DF.
  DIIS enabled.
  MOM disabled.
  Fractional occupation disabled.
  Guess Type is CORE.
  Energy threshold   = 1.00e-08
  Density threshold  = 1.00e-08
  Integral threshold = 0.00e+00

  ==> Primary Basis <==

  Basis Set: CC-PVDZ
    Number of shells: 6
    Number of basis function: 10
    Number of Cartesian functions: 10
    Spherical Harmonics?: true
    Max angular momentum: 1

  ==> Pre-Iterations <==

   -------------------------------------------------------
    Irrep   Nso     Nmo     Nalpha   Nbeta   Ndocc  Nsocc
   -------------------------------------------------------
     Ag         3       3       0       0       0       0
     B1g        0       0       0       0       0       0
     B2g        1       1       0       0       0       0
     B3g        1       1       0       0       0       0
     Au         0       0       0       0       0       0
     B1u        3       3       0       0       0       0
     B2u        1       1       0       0       0       0
     B3u        1       1       0       0       0       0
   -------------------------------------------------------
    Total      10      10       2       2       2       0
   -------------------------------------------------------

 OEINTS: Wrapper to libmints.
   by Justin Turney

   Calculation information:
      Number of atoms:                   2
      Number of AO shells:               6
      Number of SO shells:               3
      Number of primitives:             10
      Number of atomic orbitals:        10
      Number of basis functions:        10

      Number of irreps:                  8
      Number of functions per irrep: [   3    0    1    1    0    3    1    1 ]

      Overlap, kinetic, potential, dipole, and quadrupole integrals
        stored in file 35.

  ==> Integral Setup <==

 MINTS: Wrapper to libmints.
   by Justin Turney

   Calculation information:
      Number of atoms:                   2
      Number of AO shells:               6
      Number of SO shells:               3
      Number of primitives:             10
      Number of atomic orbitals:        10
      Number of basis functions:        10

      Number of irreps:                  8
      Integral cutoff                 0.00e+00
      Number of functions per irrep: [   3    0    1    1    0    3    1    1 ]

      Overlap, kinetic, potential, dipole, and quadrupole integrals
        stored in file 35.

      Computing two-electron integrals...done
      Computed 292 non-zero two-electron integrals.
        Stored in file 33.

	Batch   1 pq = [       0,      16] index = [             0,136]
  ==> DiskJK: Disk-Based J/K Matrices <==

    J tasked:                  Yes
    K tasked:                  Yes
    wK tasked:                  No
    Memory (MB):              2145
    Schwarz Cutoff:          1E-12

  Minimum eigenvalue in the overlap matrix is 3.6583226585E-01.
  Using Symmetric Orthogonalization.
  SCF Guess: Core (One-Electron) Hamiltonian.

  ==> Iterations <==

                        Total Energy        Delta E     RMS |[F,P]|

   @UHF iter   1:    -5.48373046560961   -5.48373e+00   1.43839e-01 
   @UHF iter   2:    -5.70881874234022   -2.25088e-01   1.20695e-02 DIIS
   @UHF iter   3:    -5.71032088900420   -1.50215e-03   8.02291e-05 DIIS
   @UHF iter   4:    -5.71032095330060   -6.42964e-08   1.07286e-05 DIIS
   @UHF iter   5:    -5.71032095448548   -1.18488e-09   3.76025e-09 DIIS

  ==> Post-Iterations <==

   @Spin Contamination Metric:   1.776356839E-15
   @S^2 Expected:                0.000000000E+00
   @S^2 Observed:                1.776356839E-15
   @S   Expected:                0.000000000E+00
   @S   Observed:                0.000000000E+00

	Orbital Energies (a.u.)
	-----------------------

	Alpha Occupied:                                                       

	   1Ag    -0.914148     1B1u   -0.914148  

	Alpha Virtual:                                                        

	   2Ag     1.397442     2B1u    1.397442     3Ag     2.524372  
	   1B3u    2.524372     1B2u    2.524372     1B3g    2.524372  
	   1B2g    2.524372     3B1u    2.524372  

	Beta Occupied:                                                        

	   1Ag    -0.914148     1B1u   -0.914148  

	Beta Virtual:                                                         

	   2Ag     1.397442     2B1u    1.397442     3Ag     2.524372  
	   1B3u    2.524372     1B2u    2.524372     1B3g    2.524372  
	   1B2g    2.524372     3B1u    2.524372  

	Final Occupation by Irrep:
	         Ag   B1g   B2g   B3g    Au   B1u   B2u   B3u 
	DOCC [     1,    0,    0,    0,    0,    1,    0,    0 ]
	SOCC [     0,    0,    0,    0,    0,    0,    0,    0 ]

  Energy converged.

  @UHF Final Energy:    -5.71032095448548

   => Energetics <=

    Nuclear Repulsion Energy =              0.3527848057266669
    One-Electron Energy =                  -8.4696198271183398
    Two-Electron Energy =                   2.4065140669061940
    DFT Exchange-Correlation Energy =       0.0000000000000000
    Empirical Dispersion Energy =           0.0000000000000000
    Total Energy =                         -5.7103209544854785



Properties will be evaluated at   0.000000,   0.000000,   0.000000 Bohr
  ==> Properties <==


Properties computed using the SCF density density matrix
  Nuclear Dipole Moment: (a.u.)
     X:     0.0000      Y:     0.0000      Z:     0.0000

  Electronic Dipole Moment: (a.u.)
     X:     0.0000      Y:     0.0000      Z:     0.0000

  Dipole Moment: (a.u.)
     X:     0.0000      Y:     0.0000      Z:     0.0000     Total:     0.0000

  Dipole Moment: (Debye)
     X:     0.0000      Y:     0.0000      Z:     0.0000     Total:     0.0000


  Saving occupied orbitals to File 180.

*** tstop() called on cx1-12-6-2.cx1.hpc.ic.ac.uk at Tue Feb  4 15:08:17 2014
Module time:
	user time   =       0.05 seconds =       0.00 minutes
	system time =       0.01 seconds =       0.00 minutes
	total time  =          1 seconds =       0.02 minutes
Total time:
	user time   =       4.15 seconds =       0.07 minutes
	system time =       0.45 seconds =       0.01 minutes
	total time  =         78 seconds =       1.30 minutes

  //>>>>>>>>>>>>>>>>>>>>>>>>>>>>>>>>>>>//
  //               DFMP2               //
  //<<<<<<<<<<<<<<<<<<<<<<<<<<<<<<<<<<<//

  No DF_BASIS_MP2 auxiliary basis selected, defaulting to cc-pvdz-ri

*** tstart() called on cx1-12-6-2.cx1.hpc.ic.ac.uk
*** at Tue Feb  4 15:08:17 2014

	 --------------------------------------------------------
	                          DF-MP2                         
	      2nd-Order Density-Fitted Moller-Plesset Theory     
	              UMP2 Wavefunction,   1 Threads             
	                                                         
	        Rob Parrish, Justin Turney, Andy Simmonett,      
	           Ed Hohenstein, and C. David Sherrill          
	 --------------------------------------------------------

	 --------------------------------------------------------
	                 NBF =    10, NAUX =    18
	 --------------------------------------------------------
	   CLASS    FOCC     OCC    AOCC    AVIR     VIR    FVIR
	   ALPHA       0       2       2       8       8       0
	    BETA       0       2       2       8       8       0
	 --------------------------------------------------------

	----------------------------------------------------------
	 ==================> DF-MP2 Energies <=================== 
	----------------------------------------------------------
	 Reference Energy          =      -5.7103209544854794 [H]
	 Singles Energy            =      -0.0000000000000000 [H]
	 Same-Spin Energy          =      -0.0000000448087441 [H]
	 Opposite-Spin Energy      =      -0.0516490350566333 [H]
	 Correlation Energy        =      -0.0516490798653774 [H]
	 Total Energy              =      -5.7619700343508571 [H]
	----------------------------------------------------------
	 ================> DF-SCS-MP2 Energies <================= 
	----------------------------------------------------------
	 SCS Same-Spin Scale       =       0.3333333333333333 [-]
	 SCS Opposite-Spin Scale   =       1.2000000000000000 [-]
	 SCS Same-Spin Energy      =      -0.0000000149362480 [H]
	 SCS Opposite-Spin Energy  =      -0.0619788420679600 [H]
	 SCS Correlation Energy    =      -0.0619788570042080 [H]
	 SCS Total Energy          =      -5.7722998114896873 [H]
	----------------------------------------------------------


*** tstop() called on cx1-12-6-2.cx1.hpc.ic.ac.uk at Tue Feb  4 15:08:18 2014
Module time:
	user time   =       0.06 seconds =       0.00 minutes
	system time =       0.00 seconds =       0.00 minutes
	total time  =          1 seconds =       0.02 minutes
Total time:
	user time   =       4.22 seconds =       0.07 minutes
	system time =       0.45 seconds =       0.01 minutes
	total time  =         79 seconds =       1.32 minutes

*** PSI4 exiting successfully. Buy a developer a beer!
