    -----------------------------------------------------------------------
          PSI4: An Open-Source Ab Initio Electronic Structure Package
                              PSI 4.0.0-beta5+ Driver

               Git: Rev {master} eab4c2bf53d0cfe2fa7ff775dfb81b740d89e238

    J. M. Turney, A. C. Simmonett, R. M. Parrish, E. G. Hohenstein,
    F. A. Evangelista, J. T. Fermann, B. J. Mintz, L. A. Burns, J. J. Wilke,
    M. L. Abrams, N. J. Russ, M. L. Leininger, C. L. Janssen, E. T. Seidl,
    W. D. Allen, H. F. Schaefer, R. A. King, E. F. Valeev, C. D. Sherrill,
    and T. D. Crawford, WIREs Comput. Mol. Sci. 2, 556-565 (2012)
    (doi: 10.1002/wcms.93)

                         Additional Contributions by
    A. E. DePrince, M. Saitow, U. Bozkaya, A. Yu. Sokolov
    -----------------------------------------------------------------------

    Process ID:   2572
    PSI4DATADIR: /home/wv111/local/share/psi/

    Using LocalCommunicator (Number of processes = 1)

    Memory level set to 256.000 MB

  ==> Input File <==

--------------------------------------------------------------------------
memory 3000 mb

molecule dimer {
  Kr
}


set basis cc-pVDZ
set reference uhf

# Initialize a blank dictionary of counterpoise corrected energies
# (Need this for the syntax below to work)
ecp = {}
energy('mp2')
--------------------------------------------------------------------------

  Memory set to   3.000 GiB by Python script.

  No DF_BASIS_SCF auxiliary basis selected, defaulting to cc-pvdz-jkfit


*** tstart() called on cx1-12-6-2.cx1.hpc.ic.ac.uk
*** at Tue Feb  4 14:26:15 2014

	There are an even number of electrons - assuming singlet.
	Specify the multiplicity with the MULTP option in the
	input if this is incorrect


         ---------------------------------------------------------
                                   SCF
            by Justin Turney, Rob Parrish, and Andy Simmonett
                              UHF Reference
                        1 Threads,   3000 MiB Core
         ---------------------------------------------------------

  ==> Geometry <==

    Molecular point group: d2h
    Geometry (in Angstrom), charge = 0, multiplicity = 1:

       Center              X                  Y                   Z       
    ------------   -----------------  -----------------  -----------------
          KR          0.000000000000     0.000000000000     0.000000000000

  Running in d2h symmetry.


	Rotational constants (cm^-1):
	A = **********    B = **********    C = **********  

	Rotational constants (MHz):
	A = **********    B = **********    C = **********  
  Nuclear repulsion =    0.000000000000000

  Charge       = 0
  Multiplicity = 1
  Electrons    = 36
  Nalpha       = 18
  Nbeta        = 18

  ==> Algorithm <==

  SCF Algorithm Type is DF.
  DIIS enabled.
  MOM disabled.
  Fractional occupation disabled.
  Guess Type is CORE.
  Energy threshold   = 1.00e-08
  Density threshold  = 1.00e-08
  Integral threshold = 0.00e+00

  ==> Primary Basis <==

  Basis Set: CC-PVDZ
    Number of shells: 11
    Number of basis function: 27
    Number of Cartesian functions: 29
    Spherical Harmonics?: true
    Max angular momentum: 2

  ==> Pre-Iterations <==

   -------------------------------------------------------
    Irrep   Nso     Nmo     Nalpha   Nbeta   Ndocc  Nsocc
   -------------------------------------------------------
     Ag         9       9       0       0       0       0
     B1g        2       2       0       0       0       0
     B2g        2       2       0       0       0       0
     B3g        2       2       0       0       0       0
     Au         0       0       0       0       0       0
     B1u        4       4       0       0       0       0
     B2u        4       4       0       0       0       0
     B3u        4       4       0       0       0       0
   -------------------------------------------------------
    Total      27      27      18      18      18       0
   -------------------------------------------------------

 OEINTS: Wrapper to libmints.
   by Justin Turney

   Calculation information:
      Number of atoms:                   1
      Number of AO shells:              11
      Number of SO shells:              11
      Number of primitives:             90
      Number of atomic orbitals:        29
      Number of basis functions:        27

      Number of irreps:                  8
      Number of functions per irrep: [   9    2    2    2    0    4    4    4 ]

      Overlap, kinetic, potential, dipole, and quadrupole integrals
        stored in file 35.

  ==> Integral Setup <==

  ==> DFJK: Density-Fitted J/K Matrices <==

    J tasked:                  Yes
    K tasked:                  Yes
    wK tasked:                  No
    OpenMP threads:              1
    Integrals threads:           1
    Memory (MB):              2145
    Algorithm:                Core
    Integral Cache:           NONE
    Schwarz Cutoff:          1E-12
    Fitting Condition:       1E-12

   => Auxiliary Basis Set <=

  Basis Set: cc-pvdz-jkfit
    Number of shells: 52
    Number of basis function: 188
    Number of Cartesian functions: 230
    Spherical Harmonics?: true
    Max angular momentum: 3

  Minimum eigenvalue in the overlap matrix is 9.4122781015E-02.
  Using Symmetric Orthogonalization.
  SCF Guess: Core (One-Electron) Hamiltonian.

  ==> Iterations <==

                           Total Energy        Delta E     RMS |[F,P]|

   @DF-UHF iter   1: -2746.34444728974131   -2.74634e+03   2.19097e-01 
   @DF-UHF iter   2: -2751.08957337878292   -4.74513e+00   7.32040e-02 DIIS
   @DF-UHF iter   3: -2751.25383439639972   -1.64261e-01   5.03020e-03 DIIS
   @DF-UHF iter   4: -2751.25562875034529   -1.79435e-03   7.86067e-04 DIIS
   @DF-UHF iter   5: -2751.25567363314667   -4.48828e-05   1.14934e-04 DIIS
   @DF-UHF iter   6: -2751.25567460287402   -9.69727e-07   1.04208e-06 DIIS
   @DF-UHF iter   7: -2751.25567460291813   -4.41105e-11   2.69903e-08 DIIS
   @DF-UHF iter   8: -2751.25567460291904   -9.09495e-13   9.25278e-10 DIIS

  ==> Post-Iterations <==

   @Spin Contamination Metric:  -1.421085472E-14
   @S^2 Expected:                0.000000000E+00
   @S^2 Observed:               -1.421085472E-14
   @S   Expected:                0.000000000E+00
   @S   Observed:                0.000000000E+00

	Orbital Energies (a.u.)
	-----------------------

	Alpha Occupied:                                                       

	   1Ag  -520.244133     2Ag   -69.974765     1B2u  -63.083594  
	   1B3u  -63.083594     1B1u  -63.083594     3Ag   -10.880531  
	   2B3u   -8.362563     2B1u   -8.362563     2B2u   -8.362563  
	   4Ag    -3.705192     5Ag    -3.705192     1B1g   -3.705192  
	   1B3g   -3.705192     1B2g   -3.705192     6Ag    -1.151755  
	   3B1u   -0.521274     3B3u   -0.521274     3B2u   -0.521274  

	Alpha Virtual:                                                        

	   7Ag     0.723237     4B1u    0.772564     4B3u    0.772564  
	   4B2u    0.772564     8Ag     0.864898     9Ag     0.864898  
	   2B1g    0.864898     2B3g    0.864898     2B2g    0.864898  

	Beta Occupied:                                                        

	   1Ag  -520.244133     2Ag   -69.974765     1B2u  -63.083594  
	   1B3u  -63.083594     1B1u  -63.083594     3Ag   -10.880531  
	   2B3u   -8.362563     2B1u   -8.362563     2B2u   -8.362563  
	   4Ag    -3.705192     5Ag    -3.705192     1B1g   -3.705192  
	   1B3g   -3.705192     1B2g   -3.705192     6Ag    -1.151755  
	   3B1u   -0.521274     3B3u   -0.521274     3B2u   -0.521274  

	Beta Virtual:                                                         

	   7Ag     0.723237     4B1u    0.772564     4B3u    0.772564  
	   4B2u    0.772564     8Ag     0.864898     9Ag     0.864898  
	   2B1g    0.864898     2B3g    0.864898     2B2g    0.864898  

	Final Occupation by Irrep:
	         Ag   B1g   B2g   B3g    Au   B1u   B2u   B3u 
	DOCC [     6,    1,    1,    1,    0,    3,    3,    3 ]
	SOCC [     0,    0,    0,    0,    0,    0,    0,    0 ]

  Energy converged.

  @DF-UHF Final Energy: -2751.25567460291904

   => Energetics <=

    Nuclear Repulsion Energy =              0.0000000000000000
    One-Electron Energy =               -3829.1524743590935032
    Two-Electron Energy =                1077.8967997561744596
    DFT Exchange-Correlation Energy =       0.0000000000000000
    Empirical Dispersion Energy =           0.0000000000000000
    Total Energy =                      -2751.2556746029190435



Properties will be evaluated at   0.000000,   0.000000,   0.000000 Bohr
  ==> Properties <==


Properties computed using the SCF density density matrix
  Nuclear Dipole Moment: (a.u.)
     X:     0.0000      Y:     0.0000      Z:     0.0000

  Electronic Dipole Moment: (a.u.)
     X:     0.0000      Y:     0.0000      Z:     0.0000

  Dipole Moment: (a.u.)
     X:     0.0000      Y:     0.0000      Z:     0.0000     Total:     0.0000

  Dipole Moment: (Debye)
     X:     0.0000      Y:     0.0000      Z:     0.0000     Total:     0.0000


  Saving occupied orbitals to File 180.

*** tstop() called on cx1-12-6-2.cx1.hpc.ic.ac.uk at Tue Feb  4 14:26:18 2014
Module time:
	user time   =       0.51 seconds =       0.01 minutes
	system time =       0.01 seconds =       0.00 minutes
	total time  =          3 seconds =       0.05 minutes
Total time:
	user time   =       0.51 seconds =       0.01 minutes
	system time =       0.01 seconds =       0.00 minutes
	total time  =          3 seconds =       0.05 minutes

  //>>>>>>>>>>>>>>>>>>>>>>>>>>>>>>>>>>>//
  //               DFMP2               //
  //<<<<<<<<<<<<<<<<<<<<<<<<<<<<<<<<<<<//

  No DF_BASIS_MP2 auxiliary basis selected, defaulting to cc-pvdz-ri

*** tstart() called on cx1-12-6-2.cx1.hpc.ic.ac.uk
*** at Tue Feb  4 14:26:18 2014

	 --------------------------------------------------------
	                          DF-MP2                         
	      2nd-Order Density-Fitted Moller-Plesset Theory     
	              UMP2 Wavefunction,   1 Threads             
	                                                         
	        Rob Parrish, Justin Turney, Andy Simmonett,      
	           Ed Hohenstein, and C. David Sherrill          
	 --------------------------------------------------------

	 --------------------------------------------------------
	                 NBF =    27, NAUX =   114
	 --------------------------------------------------------
	   CLASS    FOCC     OCC    AOCC    AVIR     VIR    FVIR
	   ALPHA       0      18      18       9       9       0
	    BETA       0      18      18       9       9       0
	 --------------------------------------------------------

	----------------------------------------------------------
	 ==================> DF-MP2 Energies <=================== 
	----------------------------------------------------------
	 Reference Energy          =   -2751.2556746029190435 [H]
	 Singles Energy            =      -0.0000000000000000 [H]
	 Same-Spin Energy          =      -0.0422227428831926 [H]
	 Opposite-Spin Energy      =      -0.0970738491056196 [H]
	 Correlation Energy        =      -0.1392965919888122 [H]
	 Total Energy              =   -2751.3949711949080665 [H]
	----------------------------------------------------------
	 ================> DF-SCS-MP2 Energies <================= 
	----------------------------------------------------------
	 SCS Same-Spin Scale       =       0.3333333333333333 [-]
	 SCS Opposite-Spin Scale   =       1.2000000000000000 [-]
	 SCS Same-Spin Energy      =      -0.0140742476277309 [H]
	 SCS Opposite-Spin Energy  =      -0.1164886189267435 [H]
	 SCS Correlation Energy    =      -0.1305628665544743 [H]
	 SCS Total Energy          =   -2751.3862374694735990 [H]
	----------------------------------------------------------


*** tstop() called on cx1-12-6-2.cx1.hpc.ic.ac.uk at Tue Feb  4 14:26:30 2014
Module time:
	user time   =       0.40 seconds =       0.01 minutes
	system time =       0.01 seconds =       0.00 minutes
	total time  =         12 seconds =       0.20 minutes
Total time:
	user time   =       0.91 seconds =       0.02 minutes
	system time =       0.02 seconds =       0.00 minutes
	total time  =         15 seconds =       0.25 minutes

*** PSI4 exiting successfully. Buy a developer a beer!
