    -----------------------------------------------------------------------
          PSI4: An Open-Source Ab Initio Electronic Structure Package
                              PSI 4.0.0-beta5+ Driver

               Git: Rev {master} eab4c2bf53d0cfe2fa7ff775dfb81b740d89e238

    J. M. Turney, A. C. Simmonett, R. M. Parrish, E. G. Hohenstein,
    F. A. Evangelista, J. T. Fermann, B. J. Mintz, L. A. Burns, J. J. Wilke,
    M. L. Abrams, N. J. Russ, M. L. Leininger, C. L. Janssen, E. T. Seidl,
    W. D. Allen, H. F. Schaefer, R. A. King, E. F. Valeev, C. D. Sherrill,
    and T. D. Crawford, WIREs Comput. Mol. Sci. 2, 556-565 (2012)
    (doi: 10.1002/wcms.93)

                         Additional Contributions by
    A. E. DePrince, M. Saitow, U. Bozkaya, A. Yu. Sokolov
    -----------------------------------------------------------------------

    Process ID:   5583
    PSI4DATADIR: /home/wv111/local/share/psi/

    Using LocalCommunicator (Number of processes = 1)

    Memory level set to 256.000 MB

  ==> Input File <==

--------------------------------------------------------------------------
memory 3000 mb

molecule dimer {
  Kr
--
  Kr 1 R
}

import numpy as np
rvals = np.linspace(3.5, 7, num=16)

set basis cc-pVDZ
set reference uhf

# Initialize a blank dictionary of counterpoise corrected energies
# (Need this for the syntax below to work)
ecp = {}

for R in rvals:
  dimer.R = R
  energy('mp2')
--------------------------------------------------------------------------

  Memory set to   3.000 GiB by Python script.
Setting geometry variable R to 3.500000

  No DF_BASIS_SCF auxiliary basis selected, defaulting to cc-pvdz-jkfit


*** tstart() called on cx1-12-6-2.cx1.hpc.ic.ac.uk
*** at Tue Feb  4 14:43:30 2014

	There are an even number of electrons - assuming singlet.
	Specify the multiplicity with the MULTP option in the
	input if this is incorrect


         ---------------------------------------------------------
                                   SCF
            by Justin Turney, Rob Parrish, and Andy Simmonett
                              UHF Reference
                        1 Threads,   3000 MiB Core
         ---------------------------------------------------------

  ==> Geometry <==

    Molecular point group: d2h
    Full point group: D_inf_h

    Geometry (in Angstrom), charge = 0, multiplicity = 1:

       Center              X                  Y                   Z       
    ------------   -----------------  -----------------  -----------------
          KR          0.000000000000     0.000000000000    -1.750000000000
          KR          0.000000000000     0.000000000000     1.750000000000

  Running in d2h symmetry.


	Rotational constants (cm^-1):
	A = **********    B =    0.03204   C =    0.03204

	Rotational constants (MHz):
	A = **********    B =  960.42686   C =  960.42686
  Nuclear repulsion =  195.946760666468606

  Charge       = 0
  Multiplicity = 1
  Electrons    = 72
  Nalpha       = 36
  Nbeta        = 36

  ==> Algorithm <==

  SCF Algorithm Type is DF.
  DIIS enabled.
  MOM disabled.
  Fractional occupation disabled.
  Guess Type is CORE.
  Energy threshold   = 1.00e-08
  Density threshold  = 1.00e-08
  Integral threshold = 0.00e+00

  ==> Primary Basis <==

  Basis Set: CC-PVDZ
    Number of shells: 22
    Number of basis function: 54
    Number of Cartesian functions: 58
    Spherical Harmonics?: true
    Max angular momentum: 2

  ==> Pre-Iterations <==

   -------------------------------------------------------
    Irrep   Nso     Nmo     Nalpha   Nbeta   Ndocc  Nsocc
   -------------------------------------------------------
     Ag        13      13       0       0       0       0
     B1g        2       2       0       0       0       0
     B2g        6       6       0       0       0       0
     B3g        6       6       0       0       0       0
     Au         2       2       0       0       0       0
     B1u       13      13       0       0       0       0
     B2u        6       6       0       0       0       0
     B3u        6       6       0       0       0       0
   -------------------------------------------------------
    Total      54      54      36      36      36       0
   -------------------------------------------------------

 OEINTS: Wrapper to libmints.
   by Justin Turney

   Calculation information:
      Number of atoms:                   2
      Number of AO shells:              22
      Number of SO shells:              11
      Number of primitives:            180
      Number of atomic orbitals:        58
      Number of basis functions:        54

      Number of irreps:                  8
      Number of functions per irrep: [  13    2    6    6    2   13    6    6 ]

      Overlap, kinetic, potential, dipole, and quadrupole integrals
        stored in file 35.

  ==> Integral Setup <==

  ==> DFJK: Density-Fitted J/K Matrices <==

    J tasked:                  Yes
    K tasked:                  Yes
    wK tasked:                  No
    OpenMP threads:              1
    Integrals threads:           1
    Memory (MB):              2145
    Algorithm:                Core
    Integral Cache:           NONE
    Schwarz Cutoff:          1E-12
    Fitting Condition:       1E-12

   => Auxiliary Basis Set <=

  Basis Set: cc-pvdz-jkfit
    Number of shells: 104
    Number of basis function: 376
    Number of Cartesian functions: 460
    Spherical Harmonics?: true
    Max angular momentum: 3

  Minimum eigenvalue in the overlap matrix is 8.7247970112E-02.
  Using Symmetric Orthogonalization.
  SCF Guess: Core (One-Electron) Hamiltonian.

  ==> Iterations <==

                           Total Energy        Delta E     RMS |[F,P]|

   @DF-UHF iter   1: -5492.52654942749996   -5.49253e+03   1.69459e-01 
   @DF-UHF iter   2: -5502.15694689093198   -9.63040e+00   5.60756e-02 DIIS
   @DF-UHF iter   3: -5502.50432238712256   -3.47375e-01   3.90573e-03 DIIS
   @DF-UHF iter   4: -5502.50815205405252   -3.82967e-03   5.84403e-04 DIIS
   @DF-UHF iter   5: -5502.50823971313366   -8.76591e-05   8.90671e-05 DIIS
   @DF-UHF iter   6: -5502.50824168314102   -1.97001e-06   7.71611e-06 DIIS
   @DF-UHF iter   7: -5502.50824169866883   -1.55278e-08   4.81586e-07 DIIS
   @DF-UHF iter   8: -5502.50824169875705   -8.82210e-11   1.06201e-07 DIIS
   @DF-UHF iter   9: -5502.50824169876432   -7.27596e-12   7.34460e-09 DIIS

  ==> Post-Iterations <==

   @Spin Contamination Metric:  -7.105427358E-15
   @S^2 Expected:                0.000000000E+00
   @S^2 Observed:               -7.105427358E-15
   @S   Expected:                0.000000000E+00
   @S   Observed:                0.000000000E+00

	Orbital Energies (a.u.)
	-----------------------

	Alpha Occupied:                                                       

	   1B1u -520.242907     1Ag  -520.242907     2B1u  -69.973638  
	   2Ag   -69.973635     1B2g  -63.082457     1B3g  -63.082457  
	   1B3u  -63.082457     1B2u  -63.082457     3B1u  -63.082443  
	   3Ag   -63.082442     4B1u  -10.879542     4Ag   -10.879525  
	   2B3g   -8.361584     2B2g   -8.361584     2B3u   -8.361583  
	   2B2u   -8.361583     5B1u   -8.361541     5Ag    -8.361540  
	   6B1u   -3.704247     1Au    -3.704247     6Ag    -3.704246  
	   1B1g   -3.704246     3B2g   -3.704164     3B3g   -3.704164  
	   3B3u   -3.704159     3B2u   -3.704159     7B1u   -3.704145  
	   7Ag    -3.704138     8Ag    -1.154713     8B1u   -1.148579  
	   9Ag    -0.542647     4B2u   -0.524445     4B3u   -0.524445  
	   4B2g   -0.517548     4B3g   -0.517548     9B1u   -0.499741  

	Alpha Virtual:                                                        

	  10Ag     0.628831    10B1u    0.728639     5B3u    0.744907  
	   5B2u    0.744907    11Ag     0.754601     5B2g    0.797475  
	   5B3g    0.797475    11B1u    0.826552     6B3u    0.865004  
	   6B2u    0.865004    12Ag     0.865155     2B1g    0.865155  
	  12B1u    0.865343     2Au     0.865343     6B2g    0.870698  
	   6B3g    0.870698    13Ag     0.873911    13B1u    1.027090  

	Beta Occupied:                                                        

	   1B1u -520.242907     1Ag  -520.242907     2B1u  -69.973638  
	   2Ag   -69.973635     1B2g  -63.082457     1B3g  -63.082457  
	   1B3u  -63.082457     1B2u  -63.082457     3B1u  -63.082443  
	   3Ag   -63.082442     4B1u  -10.879542     4Ag   -10.879525  
	   2B3g   -8.361584     2B2g   -8.361584     2B3u   -8.361583  
	   2B2u   -8.361583     5B1u   -8.361541     5Ag    -8.361540  
	   6B1u   -3.704247     1Au    -3.704247     6Ag    -3.704246  
	   1B1g   -3.704246     3B2g   -3.704164     3B3g   -3.704164  
	   3B3u   -3.704159     3B2u   -3.704159     7B1u   -3.704145  
	   7Ag    -3.704138     8Ag    -1.154713     8B1u   -1.148579  
	   9Ag    -0.542647     4B2u   -0.524445     4B3u   -0.524445  
	   4B2g   -0.517548     4B3g   -0.517548     9B1u   -0.499741  

	Beta Virtual:                                                         

	  10Ag     0.628831    10B1u    0.728639     5B3u    0.744907  
	   5B2u    0.744907    11Ag     0.754601     5B2g    0.797475  
	   5B3g    0.797475    11B1u    0.826552     6B3u    0.865004  
	   6B2u    0.865004    12Ag     0.865155     2B1g    0.865155  
	  12B1u    0.865343     2Au     0.865343     6B2g    0.870698  
	   6B3g    0.870698    13Ag     0.873911    13B1u    1.027090  

	Final Occupation by Irrep:
	         Ag   B1g   B2g   B3g    Au   B1u   B2u   B3u 
	DOCC [     9,    1,    4,    4,    1,    9,    4,    4 ]
	SOCC [     0,    0,    0,    0,    0,    0,    0,    0 ]

  Energy converged.

  @DF-UHF Final Energy: -5502.50824169876432

   => Energetics <=

    Nuclear Repulsion Energy =            195.9467606664686059
    One-Electron Energy =               -8050.2542825379841815
    Two-Electron Energy =                2351.7992801727514234
    DFT Exchange-Correlation Energy =       0.0000000000000000
    Empirical Dispersion Energy =           0.0000000000000000
    Total Energy =                      -5502.5082416987643228



Properties will be evaluated at   0.000000,   0.000000,   0.000000 Bohr
  ==> Properties <==


Properties computed using the SCF density density matrix
  Nuclear Dipole Moment: (a.u.)
     X:     0.0000      Y:     0.0000      Z:    -0.0000

  Electronic Dipole Moment: (a.u.)
     X:     0.0000      Y:     0.0000      Z:     0.0000

  Dipole Moment: (a.u.)
     X:     0.0000      Y:     0.0000      Z:    -0.0000     Total:     0.0000

  Dipole Moment: (Debye)
     X:     0.0000      Y:     0.0000      Z:    -0.0000     Total:     0.0000


  Saving occupied orbitals to File 180.

*** tstop() called on cx1-12-6-2.cx1.hpc.ic.ac.uk at Tue Feb  4 14:43:34 2014
Module time:
	user time   =       2.45 seconds =       0.04 minutes
	system time =       0.02 seconds =       0.00 minutes
	total time  =          4 seconds =       0.07 minutes
Total time:
	user time   =       2.45 seconds =       0.04 minutes
	system time =       0.02 seconds =       0.00 minutes
	total time  =          4 seconds =       0.07 minutes

  //>>>>>>>>>>>>>>>>>>>>>>>>>>>>>>>>>>>//
  //               DFMP2               //
  //<<<<<<<<<<<<<<<<<<<<<<<<<<<<<<<<<<<//

  No DF_BASIS_MP2 auxiliary basis selected, defaulting to cc-pvdz-ri

*** tstart() called on cx1-12-6-2.cx1.hpc.ic.ac.uk
*** at Tue Feb  4 14:43:34 2014

	 --------------------------------------------------------
	                          DF-MP2                         
	      2nd-Order Density-Fitted Moller-Plesset Theory     
	              UMP2 Wavefunction,   1 Threads             
	                                                         
	        Rob Parrish, Justin Turney, Andy Simmonett,      
	           Ed Hohenstein, and C. David Sherrill          
	 --------------------------------------------------------

	 --------------------------------------------------------
	                 NBF =    54, NAUX =   228
	 --------------------------------------------------------
	   CLASS    FOCC     OCC    AOCC    AVIR     VIR    FVIR
	   ALPHA       0      36      36      18      18       0
	    BETA       0      36      36      18      18       0
	 --------------------------------------------------------

	----------------------------------------------------------
	 ==================> DF-MP2 Energies <=================== 
	----------------------------------------------------------
	 Reference Energy          =   -5502.5082416987643228 [H]
	 Singles Energy            =      -0.0000000000000020 [H]
	 Same-Spin Energy          =      -0.0850561486387509 [H]
	 Opposite-Spin Energy      =      -0.1948144139154840 [H]
	 Correlation Energy        =      -0.2798705625542369 [H]
	 Total Energy              =   -5502.7881122613189291 [H]
	----------------------------------------------------------
	 ================> DF-SCS-MP2 Energies <================= 
	----------------------------------------------------------
	 SCS Same-Spin Scale       =       0.3333333333333333 [-]
	 SCS Opposite-Spin Scale   =       1.2000000000000000 [-]
	 SCS Same-Spin Energy      =      -0.0283520495462503 [H]
	 SCS Opposite-Spin Energy  =      -0.2337772966985808 [H]
	 SCS Correlation Energy    =      -0.2621293462448331 [H]
	 SCS Total Energy          =   -5502.7703710450095969 [H]
	----------------------------------------------------------


*** tstop() called on cx1-12-6-2.cx1.hpc.ic.ac.uk at Tue Feb  4 14:43:35 2014
Module time:
	user time   =       1.49 seconds =       0.02 minutes
	system time =       0.02 seconds =       0.00 minutes
	total time  =          1 seconds =       0.02 minutes
Total time:
	user time   =       3.94 seconds =       0.07 minutes
	system time =       0.04 seconds =       0.00 minutes
	total time  =          5 seconds =       0.08 minutes
Setting geometry variable R to 3.733333

  No DF_BASIS_SCF auxiliary basis selected, defaulting to cc-pvdz-jkfit


*** tstart() called on cx1-12-6-2.cx1.hpc.ic.ac.uk
*** at Tue Feb  4 14:43:35 2014

	There are an even number of electrons - assuming singlet.
	Specify the multiplicity with the MULTP option in the
	input if this is incorrect


         ---------------------------------------------------------
                                   SCF
            by Justin Turney, Rob Parrish, and Andy Simmonett
                              UHF Reference
                        1 Threads,   3000 MiB Core
         ---------------------------------------------------------

  ==> Geometry <==

    Molecular point group: d2h
    Full point group: D_inf_h

    Geometry (in Angstrom), charge = 0, multiplicity = 1:

       Center              X                  Y                   Z       
    ------------   -----------------  -----------------  -----------------
          KR          0.000000000000     0.000000000000    -1.866666666667
          KR          0.000000000000     0.000000000000     1.866666666667

  Running in d2h symmetry.


	Rotational constants (cm^-1):
	A = **********    B =    0.02816   C =    0.02816

	Rotational constants (MHz):
	A = **********    B =  844.12517   C =  844.12517
  Nuclear repulsion =  183.700088124814272

  Charge       = 0
  Multiplicity = 1
  Electrons    = 72
  Nalpha       = 36
  Nbeta        = 36

  ==> Algorithm <==

  SCF Algorithm Type is DF.
  DIIS enabled.
  MOM disabled.
  Fractional occupation disabled.
  Guess Type is CORE.
  Energy threshold   = 1.00e-08
  Density threshold  = 1.00e-08
  Integral threshold = 0.00e+00

  ==> Primary Basis <==

  Basis Set: CC-PVDZ
    Number of shells: 22
    Number of basis function: 54
    Number of Cartesian functions: 58
    Spherical Harmonics?: true
    Max angular momentum: 2

  ==> Pre-Iterations <==

   -------------------------------------------------------
    Irrep   Nso     Nmo     Nalpha   Nbeta   Ndocc  Nsocc
   -------------------------------------------------------
     Ag        13      13       0       0       0       0
     B1g        2       2       0       0       0       0
     B2g        6       6       0       0       0       0
     B3g        6       6       0       0       0       0
     Au         2       2       0       0       0       0
     B1u       13      13       0       0       0       0
     B2u        6       6       0       0       0       0
     B3u        6       6       0       0       0       0
   -------------------------------------------------------
    Total      54      54      36      36      36       0
   -------------------------------------------------------

 OEINTS: Wrapper to libmints.
   by Justin Turney

   Calculation information:
      Number of atoms:                   2
      Number of AO shells:              22
      Number of SO shells:              11
      Number of primitives:            180
      Number of atomic orbitals:        58
      Number of basis functions:        54

      Number of irreps:                  8
      Number of functions per irrep: [  13    2    6    6    2   13    6    6 ]

      Overlap, kinetic, potential, dipole, and quadrupole integrals
        stored in file 35.

  ==> Integral Setup <==

  ==> DFJK: Density-Fitted J/K Matrices <==

    J tasked:                  Yes
    K tasked:                  Yes
    wK tasked:                  No
    OpenMP threads:              1
    Integrals threads:           1
    Memory (MB):              2145
    Algorithm:                Core
    Integral Cache:           NONE
    Schwarz Cutoff:          1E-12
    Fitting Condition:       1E-12

   => Auxiliary Basis Set <=

  Basis Set: cc-pvdz-jkfit
    Number of shells: 104
    Number of basis function: 376
    Number of Cartesian functions: 460
    Spherical Harmonics?: true
    Max angular momentum: 3

  Minimum eigenvalue in the overlap matrix is 9.0299345978E-02.
  Using Symmetric Orthogonalization.
  SCF Guess: Core (One-Electron) Hamiltonian.

  ==> Iterations <==

                           Total Energy        Delta E     RMS |[F,P]|

   @DF-UHF iter   1: -5492.57425187150238   -5.49257e+03   1.68543e-01 
   @DF-UHF iter   2: -5502.16344879769622   -9.58920e+00   5.58993e-02 DIIS
   @DF-UHF iter   3: -5502.50618618460430   -3.42737e-01   3.88679e-03 DIIS
   @DF-UHF iter   4: -5502.50996676148316   -3.78058e-03   5.91237e-04 DIIS
   @DF-UHF iter   5: -5502.51005585606163   -8.90946e-05   9.14889e-05 DIIS
   @DF-UHF iter   6: -5502.51005793311106   -2.07705e-06   9.25852e-06 DIIS
   @DF-UHF iter   7: -5502.51005795533547   -2.22244e-08   4.18874e-07 DIIS
   @DF-UHF iter   8: -5502.51005795540004   -6.45741e-11   9.40939e-08 DIIS
   @DF-UHF iter   9: -5502.51005795540823   -8.18545e-12   6.78534e-09 DIIS

  ==> Post-Iterations <==

   @Spin Contamination Metric:  -2.842170943E-14
   @S^2 Expected:                0.000000000E+00
   @S^2 Observed:               -2.842170943E-14
   @S   Expected:                0.000000000E+00
   @S   Observed:                0.000000000E+00

	Orbital Energies (a.u.)
	-----------------------

	Alpha Occupied:                                                       

	   1B1u -520.243501     1Ag  -520.243500     2B1u  -69.974181  
	   2Ag   -69.974179     1B3g  -63.083006     1B2g  -63.083006  
	   1B2u  -63.083005     1B3u  -63.083005     3B1u  -63.082998  
	   3Ag   -63.082998     4B1u  -10.880017     4Ag   -10.880005  
	   2B2g   -8.362053     2B3g   -8.362053     2B3u   -8.362053  
	   2B2u   -8.362053     5B1u   -8.362029     5Ag    -8.362028  
	   6B1u   -3.704699     1Au    -3.704699     1B1g   -3.704698  
	   6Ag    -3.704698     3B2g   -3.704657     3B3g   -3.704657  
	   3B3u   -3.704654     3B2u   -3.704654     7B1u   -3.704647  
	   7Ag    -3.704642     8Ag    -1.153371     8B1u   -1.149895  
	   9Ag    -0.535722     4B2u   -0.523217     4B3u   -0.523217  
	   4B2g   -0.518974     4B3g   -0.518974     9B1u   -0.506622  

	Alpha Virtual:                                                        

	  10Ag     0.640681    10B1u    0.728731    11Ag     0.748878  
	   5B3u    0.752628     5B2u    0.752628     5B3g    0.792036  
	   5B2g    0.792036    11B1u    0.837516     2B1g    0.865079  
	  12Ag     0.865079     6B2u    0.865079     6B3u    0.865079  
	  12B1u    0.865123     2Au     0.865123     6B3g    0.866774  
	   6B2g    0.866774    13Ag     0.870585    13B1u    0.962930  

	Beta Occupied:                                                        

	   1B1u -520.243501     1Ag  -520.243500     2B1u  -69.974181  
	   2Ag   -69.974179     1B3g  -63.083006     1B2g  -63.083006  
	   1B2u  -63.083005     1B3u  -63.083005     3B1u  -63.082998  
	   3Ag   -63.082998     4B1u  -10.880017     4Ag   -10.880005  
	   2B2g   -8.362053     2B3g   -8.362053     2B3u   -8.362053  
	   2B2u   -8.362053     5B1u   -8.362029     5Ag    -8.362028  
	   6B1u   -3.704699     1Au    -3.704699     1B1g   -3.704698  
	   6Ag    -3.704698     3B2g   -3.704657     3B3g   -3.704657  
	   3B3u   -3.704654     3B2u   -3.704654     7B1u   -3.704647  
	   7Ag    -3.704642     8Ag    -1.153371     8B1u   -1.149895  
	   9Ag    -0.535722     4B2u   -0.523217     4B3u   -0.523217  
	   4B2g   -0.518974     4B3g   -0.518974     9B1u   -0.506622  

	Beta Virtual:                                                         

	  10Ag     0.640681    10B1u    0.728731    11Ag     0.748878  
	   5B3u    0.752628     5B2u    0.752628     5B3g    0.792036  
	   5B2g    0.792036    11B1u    0.837516     2B1g    0.865079  
	  12Ag     0.865079     6B2u    0.865079     6B3u    0.865079  
	  12B1u    0.865123     2Au     0.865123     6B3g    0.866774  
	   6B2g    0.866774    13Ag     0.870585    13B1u    0.962930  

	Final Occupation by Irrep:
	         Ag   B1g   B2g   B3g    Au   B1u   B2u   B3u 
	DOCC [     9,    1,    4,    4,    1,    9,    4,    4 ]
	SOCC [     0,    0,    0,    0,    0,    0,    0,    0 ]

  Energy converged.

  @DF-UHF Final Energy: -5502.51005795540823

   => Energetics <=

    Nuclear Repulsion Energy =            183.7000881248142719
    One-Electron Energy =               -8025.7355556910388259
    Two-Electron Energy =                2339.5254096108164958
    DFT Exchange-Correlation Energy =       0.0000000000000000
    Empirical Dispersion Energy =           0.0000000000000000
    Total Energy =                      -5502.5100579554082287



Properties will be evaluated at   0.000000,   0.000000,   0.000000 Bohr
  ==> Properties <==


Properties computed using the SCF density density matrix
  Nuclear Dipole Moment: (a.u.)
     X:     0.0000      Y:     0.0000      Z:     0.0000

  Electronic Dipole Moment: (a.u.)
     X:     0.0000      Y:     0.0000      Z:     0.0000

  Dipole Moment: (a.u.)
     X:     0.0000      Y:     0.0000      Z:     0.0000     Total:     0.0000

  Dipole Moment: (Debye)
     X:     0.0000      Y:     0.0000      Z:     0.0000     Total:     0.0000


  Saving occupied orbitals to File 180.

*** tstop() called on cx1-12-6-2.cx1.hpc.ic.ac.uk at Tue Feb  4 14:43:39 2014
Module time:
	user time   =       2.44 seconds =       0.04 minutes
	system time =       0.01 seconds =       0.00 minutes
	total time  =          4 seconds =       0.07 minutes
Total time:
	user time   =       6.41 seconds =       0.11 minutes
	system time =       0.05 seconds =       0.00 minutes
	total time  =          9 seconds =       0.15 minutes

  //>>>>>>>>>>>>>>>>>>>>>>>>>>>>>>>>>>>//
  //               DFMP2               //
  //<<<<<<<<<<<<<<<<<<<<<<<<<<<<<<<<<<<//

  No DF_BASIS_MP2 auxiliary basis selected, defaulting to cc-pvdz-ri

*** tstart() called on cx1-12-6-2.cx1.hpc.ic.ac.uk
*** at Tue Feb  4 14:43:39 2014

	 --------------------------------------------------------
	                          DF-MP2                         
	      2nd-Order Density-Fitted Moller-Plesset Theory     
	              UMP2 Wavefunction,   1 Threads             
	                                                         
	        Rob Parrish, Justin Turney, Andy Simmonett,      
	           Ed Hohenstein, and C. David Sherrill          
	 --------------------------------------------------------

	 --------------------------------------------------------
	                 NBF =    54, NAUX =   228
	 --------------------------------------------------------
	   CLASS    FOCC     OCC    AOCC    AVIR     VIR    FVIR
	   ALPHA       0      36      36      18      18       0
	    BETA       0      36      36      18      18       0
	 --------------------------------------------------------

	----------------------------------------------------------
	 ==================> DF-MP2 Energies <=================== 
	----------------------------------------------------------
	 Reference Energy          =   -5502.5100579554082287 [H]
	 Singles Energy            =      -0.0000000000000019 [H]
	 Same-Spin Energy          =      -0.0848266584502549 [H]
	 Opposite-Spin Energy      =      -0.1945645835524399 [H]
	 Correlation Energy        =      -0.2793912420026968 [H]
	 Total Energy              =   -5502.7894491974111588 [H]
	----------------------------------------------------------
	 ================> DF-SCS-MP2 Energies <================= 
	----------------------------------------------------------
	 SCS Same-Spin Scale       =       0.3333333333333333 [-]
	 SCS Opposite-Spin Scale   =       1.2000000000000000 [-]
	 SCS Same-Spin Energy      =      -0.0282755528167516 [H]
	 SCS Opposite-Spin Energy  =      -0.2334775002629279 [H]
	 SCS Correlation Energy    =      -0.2617530530796814 [H]
	 SCS Total Energy          =   -5502.7718110084879299 [H]
	----------------------------------------------------------


*** tstop() called on cx1-12-6-2.cx1.hpc.ic.ac.uk at Tue Feb  4 14:43:40 2014
Module time:
	user time   =       1.50 seconds =       0.03 minutes
	system time =       0.01 seconds =       0.00 minutes
	total time  =          1 seconds =       0.02 minutes
Total time:
	user time   =       7.91 seconds =       0.13 minutes
	system time =       0.06 seconds =       0.00 minutes
	total time  =         10 seconds =       0.17 minutes
Setting geometry variable R to 3.966667

  No DF_BASIS_SCF auxiliary basis selected, defaulting to cc-pvdz-jkfit


*** tstart() called on cx1-12-6-2.cx1.hpc.ic.ac.uk
*** at Tue Feb  4 14:43:41 2014

	There are an even number of electrons - assuming singlet.
	Specify the multiplicity with the MULTP option in the
	input if this is incorrect


         ---------------------------------------------------------
                                   SCF
            by Justin Turney, Rob Parrish, and Andy Simmonett
                              UHF Reference
                        1 Threads,   3000 MiB Core
         ---------------------------------------------------------

  ==> Geometry <==

    Molecular point group: d2h
    Full point group: D_inf_h

    Geometry (in Angstrom), charge = 0, multiplicity = 1:

       Center              X                  Y                   Z       
    ------------   -----------------  -----------------  -----------------
          KR          0.000000000000     0.000000000000    -1.983333333333
          KR          0.000000000000     0.000000000000     1.983333333333

  Running in d2h symmetry.


	Rotational constants (cm^-1):
	A = **********    B =    0.02494   C =    0.02494

	Rotational constants (MHz):
	A = **********    B =  747.73717   C =  747.73717
  Nuclear repulsion =  172.894200588060556

  Charge       = 0
  Multiplicity = 1
  Electrons    = 72
  Nalpha       = 36
  Nbeta        = 36

  ==> Algorithm <==

  SCF Algorithm Type is DF.
  DIIS enabled.
  MOM disabled.
  Fractional occupation disabled.
  Guess Type is CORE.
  Energy threshold   = 1.00e-08
  Density threshold  = 1.00e-08
  Integral threshold = 0.00e+00

  ==> Primary Basis <==

  Basis Set: CC-PVDZ
    Number of shells: 22
    Number of basis function: 54
    Number of Cartesian functions: 58
    Spherical Harmonics?: true
    Max angular momentum: 2

  ==> Pre-Iterations <==

   -------------------------------------------------------
    Irrep   Nso     Nmo     Nalpha   Nbeta   Ndocc  Nsocc
   -------------------------------------------------------
     Ag        13      13       0       0       0       0
     B1g        2       2       0       0       0       0
     B2g        6       6       0       0       0       0
     B3g        6       6       0       0       0       0
     Au         2       2       0       0       0       0
     B1u       13      13       0       0       0       0
     B2u        6       6       0       0       0       0
     B3u        6       6       0       0       0       0
   -------------------------------------------------------
    Total      54      54      36      36      36       0
   -------------------------------------------------------

 OEINTS: Wrapper to libmints.
   by Justin Turney

   Calculation information:
      Number of atoms:                   2
      Number of AO shells:              22
      Number of SO shells:              11
      Number of primitives:            180
      Number of atomic orbitals:        58
      Number of basis functions:        54

      Number of irreps:                  8
      Number of functions per irrep: [  13    2    6    6    2   13    6    6 ]

      Overlap, kinetic, potential, dipole, and quadrupole integrals
        stored in file 35.

  ==> Integral Setup <==

  ==> DFJK: Density-Fitted J/K Matrices <==

    J tasked:                  Yes
    K tasked:                  Yes
    wK tasked:                  No
    OpenMP threads:              1
    Integrals threads:           1
    Memory (MB):              2145
    Algorithm:                Core
    Integral Cache:           NONE
    Schwarz Cutoff:          1E-12
    Fitting Condition:       1E-12

   => Auxiliary Basis Set <=

  Basis Set: cc-pvdz-jkfit
    Number of shells: 104
    Number of basis function: 376
    Number of Cartesian functions: 460
    Spherical Harmonics?: true
    Max angular momentum: 3

  Minimum eigenvalue in the overlap matrix is 9.2066615490E-02.
  Using Symmetric Orthogonalization.
  SCF Guess: Core (One-Electron) Hamiltonian.

  ==> Iterations <==

                           Total Energy        Delta E     RMS |[F,P]|

   @DF-UHF iter   1: -5492.60867226418213   -5.49261e+03   1.67909e-01 
   @DF-UHF iter   2: -5502.16752703328166   -9.55885e+00   5.57845e-02 DIIS
   @DF-UHF iter   3: -5502.50702796122550   -3.39501e-01   3.87326e-03 DIIS
   @DF-UHF iter   4: -5502.51077067145070   -3.74271e-03   5.96482e-04 DIIS
   @DF-UHF iter   5: -5502.51086092073092   -9.02493e-05   9.18694e-05 DIIS
   @DF-UHF iter   6: -5502.51086302543263   -2.10470e-06   9.27674e-06 DIIS
   @DF-UHF iter   7: -5502.51086304762066   -2.21880e-08   3.59816e-07 DIIS
   @DF-UHF iter   8: -5502.51086304767068   -5.00222e-11   7.95982e-08 DIIS
   @DF-UHF iter   9: -5502.51086304767250   -1.81899e-12   6.25006e-09 DIIS

  ==> Post-Iterations <==

   @Spin Contamination Metric:  -7.105427358E-15
   @S^2 Expected:                0.000000000E+00
   @S^2 Observed:               -7.105427358E-15
   @S   Expected:                0.000000000E+00
   @S   Observed:                0.000000000E+00

	Orbital Energies (a.u.)
	-----------------------

	Alpha Occupied:                                                       

	   1B1u -520.243846     1Ag  -520.243845     2B1u  -69.974501  
	   2Ag   -69.974500     1B2g  -63.083327     1B3g  -63.083327  
	   1B3u  -63.083327     1B2u  -63.083327     3B1u  -63.083325  
	   3Ag   -63.083324     4B1u  -10.880301     4Ag   -10.880293  
	   2B3g   -8.362334     2B2g   -8.362334     2B2u   -8.362334  
	   2B3u   -8.362334     5B1u   -8.362323     5Ag    -8.362323  
	   6B1u   -3.704970     1Au    -3.704970     6Ag    -3.704970  
	   1B1g   -3.704970     3B2g   -3.704952     3B3g   -3.704952  
	   3B3u   -3.704950     3B2u   -3.704950     7B1u   -3.704948  
	   7Ag    -3.704944     8Ag    -1.152661     8B1u   -1.150708  
	   9Ag    -0.530957     4B2u   -0.522482     4B3u   -0.522482  
	   4B3g   -0.519892     4B2g   -0.519892     9B1u   -0.511444  

	Alpha Virtual:                                                        

	  10Ag     0.659335    10B1u    0.728311    11Ag     0.745127  
	   5B2u    0.758838     5B3u    0.758838     5B3g    0.786338  
	   5B2g    0.786338    11B1u    0.843790    12Ag     0.864987  
	   2B1g    0.864987    12B1u    0.864995     2Au     0.864995  
	   6B2u    0.864998     6B3u    0.864998     6B2g    0.865459  
	   6B3g    0.865459    13Ag     0.867770    13B1u    0.912817  

	Beta Occupied:                                                        

	   1B1u -520.243846     1Ag  -520.243845     2B1u  -69.974501  
	   2Ag   -69.974500     1B2g  -63.083327     1B3g  -63.083327  
	   1B3u  -63.083327     1B2u  -63.083327     3B1u  -63.083325  
	   3Ag   -63.083324     4B1u  -10.880301     4Ag   -10.880293  
	   2B3g   -8.362334     2B2g   -8.362334     2B2u   -8.362334  
	   2B3u   -8.362334     5B1u   -8.362323     5Ag    -8.362323  
	   6B1u   -3.704970     1Au    -3.704970     6Ag    -3.704970  
	   1B1g   -3.704970     3B2g   -3.704952     3B3g   -3.704952  
	   3B3u   -3.704950     3B2u   -3.704950     7B1u   -3.704948  
	   7Ag    -3.704944     8Ag    -1.152661     8B1u   -1.150708  
	   9Ag    -0.530957     4B2u   -0.522482     4B3u   -0.522482  
	   4B3g   -0.519892     4B2g   -0.519892     9B1u   -0.511444  

	Beta Virtual:                                                         

	  10Ag     0.659335    10B1u    0.728311    11Ag     0.745127  
	   5B2u    0.758838     5B3u    0.758838     5B3g    0.786338  
	   5B2g    0.786338    11B1u    0.843790    12Ag     0.864987  
	   2B1g    0.864987    12B1u    0.864995     2Au     0.864995  
	   6B2u    0.864998     6B3u    0.864998     6B2g    0.865459  
	   6B3g    0.865459    13Ag     0.867770    13B1u    0.912817  

	Final Occupation by Irrep:
	         Ag   B1g   B2g   B3g    Au   B1u   B2u   B3u 
	DOCC [     9,    1,    4,    4,    1,    9,    4,    4 ]
	SOCC [     0,    0,    0,    0,    0,    0,    0,    0 ]

  Energy converged.

  @DF-UHF Final Energy: -5502.51086304767250

   => Energetics <=

    Nuclear Repulsion Energy =            172.8942005880605564
    One-Electron Energy =               -8004.1074900974927004
    Two-Electron Energy =                2328.7024264617593872
    DFT Exchange-Correlation Energy =       0.0000000000000000
    Empirical Dispersion Energy =           0.0000000000000000
    Total Energy =                      -5502.5108630476725011



Properties will be evaluated at   0.000000,   0.000000,   0.000000 Bohr
  ==> Properties <==


Properties computed using the SCF density density matrix
  Nuclear Dipole Moment: (a.u.)
     X:     0.0000      Y:     0.0000      Z:     0.0000

  Electronic Dipole Moment: (a.u.)
     X:     0.0000      Y:     0.0000      Z:     0.0000

  Dipole Moment: (a.u.)
     X:     0.0000      Y:     0.0000      Z:     0.0000     Total:     0.0000

  Dipole Moment: (Debye)
     X:     0.0000      Y:     0.0000      Z:     0.0000     Total:     0.0000


  Saving occupied orbitals to File 180.

*** tstop() called on cx1-12-6-2.cx1.hpc.ic.ac.uk at Tue Feb  4 14:43:44 2014
Module time:
	user time   =       2.42 seconds =       0.04 minutes
	system time =       0.01 seconds =       0.00 minutes
	total time  =          3 seconds =       0.05 minutes
Total time:
	user time   =      10.36 seconds =       0.17 minutes
	system time =       0.07 seconds =       0.00 minutes
	total time  =         14 seconds =       0.23 minutes

  //>>>>>>>>>>>>>>>>>>>>>>>>>>>>>>>>>>>//
  //               DFMP2               //
  //<<<<<<<<<<<<<<<<<<<<<<<<<<<<<<<<<<<//

  No DF_BASIS_MP2 auxiliary basis selected, defaulting to cc-pvdz-ri

*** tstart() called on cx1-12-6-2.cx1.hpc.ic.ac.uk
*** at Tue Feb  4 14:43:44 2014

	 --------------------------------------------------------
	                          DF-MP2                         
	      2nd-Order Density-Fitted Moller-Plesset Theory     
	              UMP2 Wavefunction,   1 Threads             
	                                                         
	        Rob Parrish, Justin Turney, Andy Simmonett,      
	           Ed Hohenstein, and C. David Sherrill          
	 --------------------------------------------------------

	 --------------------------------------------------------
	                 NBF =    54, NAUX =   228
	 --------------------------------------------------------
	   CLASS    FOCC     OCC    AOCC    AVIR     VIR    FVIR
	   ALPHA       0      36      36      18      18       0
	    BETA       0      36      36      18      18       0
	 --------------------------------------------------------

	----------------------------------------------------------
	 ==================> DF-MP2 Energies <=================== 
	----------------------------------------------------------
	 Reference Energy          =   -5502.5108630476725011 [H]
	 Singles Energy            =      -0.0000000000000018 [H]
	 Same-Spin Energy          =      -0.0846851195564105 [H]
	 Opposite-Spin Energy      =      -0.1944087606952502 [H]
	 Correlation Energy        =      -0.2790938802516625 [H]
	 Total Energy              =   -5502.7899569279243224 [H]
	----------------------------------------------------------
	 ================> DF-SCS-MP2 Energies <================= 
	----------------------------------------------------------
	 SCS Same-Spin Scale       =       0.3333333333333333 [-]
	 SCS Opposite-Spin Scale   =       1.2000000000000000 [-]
	 SCS Same-Spin Energy      =      -0.0282283731854702 [H]
	 SCS Opposite-Spin Energy  =      -0.2332905128343002 [H]
	 SCS Correlation Energy    =      -0.2615188860197722 [H]
	 SCS Total Energy          =   -5502.7723819336924862 [H]
	----------------------------------------------------------


*** tstop() called on cx1-12-6-2.cx1.hpc.ic.ac.uk at Tue Feb  4 14:43:45 2014
Module time:
	user time   =       1.50 seconds =       0.03 minutes
	system time =       0.02 seconds =       0.00 minutes
	total time  =          1 seconds =       0.02 minutes
Total time:
	user time   =      11.86 seconds =       0.20 minutes
	system time =       0.09 seconds =       0.00 minutes
	total time  =         15 seconds =       0.25 minutes
Setting geometry variable R to 4.200000

  No DF_BASIS_SCF auxiliary basis selected, defaulting to cc-pvdz-jkfit


*** tstart() called on cx1-12-6-2.cx1.hpc.ic.ac.uk
*** at Tue Feb  4 14:43:45 2014

	There are an even number of electrons - assuming singlet.
	Specify the multiplicity with the MULTP option in the
	input if this is incorrect


         ---------------------------------------------------------
                                   SCF
            by Justin Turney, Rob Parrish, and Andy Simmonett
                              UHF Reference
                        1 Threads,   3000 MiB Core
         ---------------------------------------------------------

  ==> Geometry <==

    Molecular point group: d2h
    Full point group: D_inf_h

    Geometry (in Angstrom), charge = 0, multiplicity = 1:

       Center              X                  Y                   Z       
    ------------   -----------------  -----------------  -----------------
          KR          0.000000000000     0.000000000000    -2.100000000000
          KR          0.000000000000     0.000000000000     2.100000000000

  Running in d2h symmetry.


	Rotational constants (cm^-1):
	A = **********    B =    0.02225   C =    0.02225

	Rotational constants (MHz):
	A = **********    B =  666.96310   C =  666.96310
  Nuclear repulsion =  163.288967222057153

  Charge       = 0
  Multiplicity = 1
  Electrons    = 72
  Nalpha       = 36
  Nbeta        = 36

  ==> Algorithm <==

  SCF Algorithm Type is DF.
  DIIS enabled.
  MOM disabled.
  Fractional occupation disabled.
  Guess Type is CORE.
  Energy threshold   = 1.00e-08
  Density threshold  = 1.00e-08
  Integral threshold = 0.00e+00

  ==> Primary Basis <==

  Basis Set: CC-PVDZ
    Number of shells: 22
    Number of basis function: 54
    Number of Cartesian functions: 58
    Spherical Harmonics?: true
    Max angular momentum: 2

  ==> Pre-Iterations <==

   -------------------------------------------------------
    Irrep   Nso     Nmo     Nalpha   Nbeta   Ndocc  Nsocc
   -------------------------------------------------------
     Ag        13      13       0       0       0       0
     B1g        2       2       0       0       0       0
     B2g        6       6       0       0       0       0
     B3g        6       6       0       0       0       0
     Au         2       2       0       0       0       0
     B1u       13      13       0       0       0       0
     B2u        6       6       0       0       0       0
     B3u        6       6       0       0       0       0
   -------------------------------------------------------
    Total      54      54      36      36      36       0
   -------------------------------------------------------

 OEINTS: Wrapper to libmints.
   by Justin Turney

   Calculation information:
      Number of atoms:                   2
      Number of AO shells:              22
      Number of SO shells:              11
      Number of primitives:            180
      Number of atomic orbitals:        58
      Number of basis functions:        54

      Number of irreps:                  8
      Number of functions per irrep: [  13    2    6    6    2   13    6    6 ]

      Overlap, kinetic, potential, dipole, and quadrupole integrals
        stored in file 35.

  ==> Integral Setup <==

  ==> DFJK: Density-Fitted J/K Matrices <==

    J tasked:                  Yes
    K tasked:                  Yes
    wK tasked:                  No
    OpenMP threads:              1
    Integrals threads:           1
    Memory (MB):              2145
    Algorithm:                Core
    Integral Cache:           NONE
    Schwarz Cutoff:          1E-12
    Fitting Condition:       1E-12

   => Auxiliary Basis Set <=

  Basis Set: cc-pvdz-jkfit
    Number of shells: 104
    Number of basis function: 376
    Number of Cartesian functions: 460
    Spherical Harmonics?: true
    Max angular momentum: 3

  Minimum eigenvalue in the overlap matrix is 9.3049291572E-02.
  Using Symmetric Orthogonalization.
  SCF Guess: Core (One-Electron) Hamiltonian.

  ==> Iterations <==

                           Total Energy        Delta E     RMS |[F,P]|

   @DF-UHF iter   1: -5492.63198265020765   -5.49263e+03   1.67477e-01 
   @DF-UHF iter   2: -5502.17039308987751   -9.53841e+00   5.57068e-02 DIIS
   @DF-UHF iter   3: -5502.50739630395947   -3.37003e-01   3.86102e-03 DIIS
   @DF-UHF iter   4: -5502.51110513348431   -3.70883e-03   5.99008e-04 DIIS
   @DF-UHF iter   5: -5502.51119588986239   -9.07564e-05   9.13882e-05 DIIS
   @DF-UHF iter   6: -5502.51119798222317   -2.09236e-06   8.75720e-06 DIIS
   @DF-UHF iter   7: -5502.51119800191736   -1.96942e-08   3.06715e-07 DIIS
   @DF-UHF iter   8: -5502.51119800195465   -3.72893e-11   6.51454e-08 DIIS
   @DF-UHF iter   9: -5502.51119800195738   -2.72848e-12   5.60571e-09 DIIS

  ==> Post-Iterations <==

   @Spin Contamination Metric:   7.105427358E-15
   @S^2 Expected:                0.000000000E+00
   @S^2 Observed:                7.105427358E-15
   @S   Expected:                0.000000000E+00
   @S   Observed:                0.000000000E+00

	Orbital Energies (a.u.)
	-----------------------

	Alpha Occupied:                                                       

	   1B1u -520.244025     1Ag  -520.244025     2B1u  -69.974667  
	   2Ag   -69.974667     1B3g  -63.083495     1B2g  -63.083495  
	   1B3u  -63.083495     1B2u  -63.083495     3B1u  -63.083494  
	   3Ag   -63.083494     4B1u  -10.880449     4Ag   -10.880444  
	   2B2g   -8.362480     2B3g   -8.362480     2B3u   -8.362480  
	   2B2u   -8.362480     5B1u   -8.362477     5Ag    -8.362477  
	   1Au    -3.705112     6B1u   -3.705112     1B1g   -3.705111  
	   6Ag    -3.705111     3B2g   -3.705106     3B3g   -3.705106  
	   7B1u   -3.705105     3B3u   -3.705105     3B2u   -3.705105  
	   7Ag    -3.705102     8Ag    -1.152271     8B1u   -1.151186  
	   9Ag    -0.527706     4B2u   -0.522027     4B3u   -0.522027  
	   4B2g   -0.520461     4B3g   -0.520461     9B1u   -0.514766  

	Alpha Virtual:                                                        

	  10Ag     0.680266    10B1u    0.727578    11Ag     0.743227  
	   5B2u    0.763545     5B3u    0.763545     5B3g    0.781654  
	   5B2g    0.781654    11B1u    0.841851     2Au     0.864929  
	  12B1u    0.864929     2B1g    0.864929    12Ag     0.864929  
	   6B3u    0.864933     6B2u    0.864933     6B2g    0.865053  
	   6B3g    0.865053    13Ag     0.866097    13B1u    0.879548  

	Beta Occupied:                                                        

	   1B1u -520.244025     1Ag  -520.244025     2B1u  -69.974667  
	   2Ag   -69.974667     1B3g  -63.083495     1B2g  -63.083495  
	   1B3u  -63.083495     1B2u  -63.083495     3B1u  -63.083494  
	   3Ag   -63.083494     4B1u  -10.880449     4Ag   -10.880444  
	   2B2g   -8.362480     2B3g   -8.362480     2B3u   -8.362480  
	   2B2u   -8.362480     5B1u   -8.362477     5Ag    -8.362477  
	   1Au    -3.705112     6B1u   -3.705112     1B1g   -3.705111  
	   6Ag    -3.705111     3B2g   -3.705106     3B3g   -3.705106  
	   7B1u   -3.705105     3B3u   -3.705105     3B2u   -3.705105  
	   7Ag    -3.705102     8Ag    -1.152271     8B1u   -1.151186  
	   9Ag    -0.527706     4B2u   -0.522027     4B3u   -0.522027  
	   4B2g   -0.520461     4B3g   -0.520461     9B1u   -0.514766  

	Beta Virtual:                                                         

	  10Ag     0.680266    10B1u    0.727578    11Ag     0.743227  
	   5B2u    0.763545     5B3u    0.763545     5B3g    0.781654  
	   5B2g    0.781654    11B1u    0.841851     2Au     0.864929  
	  12B1u    0.864929     2B1g    0.864929    12Ag     0.864929  
	   6B3u    0.864933     6B2u    0.864933     6B2g    0.865053  
	   6B3g    0.865053    13Ag     0.866097    13B1u    0.879548  

	Final Occupation by Irrep:
	         Ag   B1g   B2g   B3g    Au   B1u   B2u   B3u 
	DOCC [     9,    1,    4,    4,    1,    9,    4,    4 ]
	SOCC [     0,    0,    0,    0,    0,    0,    0,    0 ]

  Energy converged.

  @DF-UHF Final Energy: -5502.51119800195738

   => Energetics <=

    Nuclear Repulsion Energy =            163.2889672220571526
    One-Electron Energy =               -7984.8881337226994219
    Two-Electron Energy =                2319.0879684986848588
    DFT Exchange-Correlation Energy =       0.0000000000000000
    Empirical Dispersion Energy =           0.0000000000000000
    Total Energy =                      -5502.5111980019573821



Properties will be evaluated at   0.000000,   0.000000,   0.000000 Bohr
  ==> Properties <==


Properties computed using the SCF density density matrix
  Nuclear Dipole Moment: (a.u.)
     X:     0.0000      Y:     0.0000      Z:     0.0000

  Electronic Dipole Moment: (a.u.)
     X:     0.0000      Y:     0.0000      Z:     0.0000

  Dipole Moment: (a.u.)
     X:     0.0000      Y:     0.0000      Z:     0.0000     Total:     0.0000

  Dipole Moment: (Debye)
     X:     0.0000      Y:     0.0000      Z:     0.0000     Total:     0.0000


  Saving occupied orbitals to File 180.

*** tstop() called on cx1-12-6-2.cx1.hpc.ic.ac.uk at Tue Feb  4 14:43:48 2014
Module time:
	user time   =       2.35 seconds =       0.04 minutes
	system time =       0.00 seconds =       0.00 minutes
	total time  =          3 seconds =       0.05 minutes
Total time:
	user time   =      14.23 seconds =       0.24 minutes
	system time =       0.09 seconds =       0.00 minutes
	total time  =         18 seconds =       0.30 minutes

  //>>>>>>>>>>>>>>>>>>>>>>>>>>>>>>>>>>>//
  //               DFMP2               //
  //<<<<<<<<<<<<<<<<<<<<<<<<<<<<<<<<<<<//

  No DF_BASIS_MP2 auxiliary basis selected, defaulting to cc-pvdz-ri

*** tstart() called on cx1-12-6-2.cx1.hpc.ic.ac.uk
*** at Tue Feb  4 14:43:48 2014

	 --------------------------------------------------------
	                          DF-MP2                         
	      2nd-Order Density-Fitted Moller-Plesset Theory     
	              UMP2 Wavefunction,   1 Threads             
	                                                         
	        Rob Parrish, Justin Turney, Andy Simmonett,      
	           Ed Hohenstein, and C. David Sherrill          
	 --------------------------------------------------------

	 --------------------------------------------------------
	                 NBF =    54, NAUX =   228
	 --------------------------------------------------------
	   CLASS    FOCC     OCC    AOCC    AVIR     VIR    FVIR
	   ALPHA       0      36      36      18      18       0
	    BETA       0      36      36      18      18       0
	 --------------------------------------------------------

	----------------------------------------------------------
	 ==================> DF-MP2 Energies <=================== 
	----------------------------------------------------------
	 Reference Energy          =   -5502.5111980019573821 [H]
	 Singles Energy            =      -0.0000000000000016 [H]
	 Same-Spin Energy          =      -0.0845995111992940 [H]
	 Opposite-Spin Energy      =      -0.1943137415659876 [H]
	 Correlation Energy        =      -0.2789132527652831 [H]
	 Total Energy              =   -5502.7901112547224329 [H]
	----------------------------------------------------------
	 ================> DF-SCS-MP2 Energies <================= 
	----------------------------------------------------------
	 SCS Same-Spin Scale       =       0.3333333333333333 [-]
	 SCS Opposite-Spin Scale   =       1.2000000000000000 [-]
	 SCS Same-Spin Energy      =      -0.0281998370664313 [H]
	 SCS Opposite-Spin Energy  =      -0.2331764898791851 [H]
	 SCS Correlation Energy    =      -0.2613763269456180 [H]
	 SCS Total Energy          =   -5502.7725743289029197 [H]
	----------------------------------------------------------


*** tstop() called on cx1-12-6-2.cx1.hpc.ic.ac.uk at Tue Feb  4 14:43:50 2014
Module time:
	user time   =       1.49 seconds =       0.02 minutes
	system time =       0.02 seconds =       0.00 minutes
	total time  =          2 seconds =       0.03 minutes
Total time:
	user time   =      15.73 seconds =       0.26 minutes
	system time =       0.11 seconds =       0.00 minutes
	total time  =         20 seconds =       0.33 minutes
Setting geometry variable R to 4.433333

  No DF_BASIS_SCF auxiliary basis selected, defaulting to cc-pvdz-jkfit


*** tstart() called on cx1-12-6-2.cx1.hpc.ic.ac.uk
*** at Tue Feb  4 14:43:50 2014

	There are an even number of electrons - assuming singlet.
	Specify the multiplicity with the MULTP option in the
	input if this is incorrect


         ---------------------------------------------------------
                                   SCF
            by Justin Turney, Rob Parrish, and Andy Simmonett
                              UHF Reference
                        1 Threads,   3000 MiB Core
         ---------------------------------------------------------

  ==> Geometry <==

    Molecular point group: d2h
    Full point group: D_inf_h

    Geometry (in Angstrom), charge = 0, multiplicity = 1:

       Center              X                  Y                   Z       
    ------------   -----------------  -----------------  -----------------
          KR          0.000000000000     0.000000000000    -2.216666666667
          KR          0.000000000000     0.000000000000     2.216666666667

  Running in d2h symmetry.


	Rotational constants (cm^-1):
	A = **********    B =    0.01997   C =    0.01997

	Rotational constants (MHz):
	A = **********    B =  598.60400   C =  598.60400
  Nuclear repulsion =  154.694811052475160

  Charge       = 0
  Multiplicity = 1
  Electrons    = 72
  Nalpha       = 36
  Nbeta        = 36

  ==> Algorithm <==

  SCF Algorithm Type is DF.
  DIIS enabled.
  MOM disabled.
  Fractional occupation disabled.
  Guess Type is CORE.
  Energy threshold   = 1.00e-08
  Density threshold  = 1.00e-08
  Integral threshold = 0.00e+00

  ==> Primary Basis <==

  Basis Set: CC-PVDZ
    Number of shells: 22
    Number of basis function: 54
    Number of Cartesian functions: 58
    Spherical Harmonics?: true
    Max angular momentum: 2

  ==> Pre-Iterations <==

   -------------------------------------------------------
    Irrep   Nso     Nmo     Nalpha   Nbeta   Ndocc  Nsocc
   -------------------------------------------------------
     Ag        13      13       0       0       0       0
     B1g        2       2       0       0       0       0
     B2g        6       6       0       0       0       0
     B3g        6       6       0       0       0       0
     Au         2       2       0       0       0       0
     B1u       13      13       0       0       0       0
     B2u        6       6       0       0       0       0
     B3u        6       6       0       0       0       0
   -------------------------------------------------------
    Total      54      54      36      36      36       0
   -------------------------------------------------------

 OEINTS: Wrapper to libmints.
   by Justin Turney

   Calculation information:
      Number of atoms:                   2
      Number of AO shells:              22
      Number of SO shells:              11
      Number of primitives:            180
      Number of atomic orbitals:        58
      Number of basis functions:        54

      Number of irreps:                  8
      Number of functions per irrep: [  13    2    6    6    2   13    6    6 ]

      Overlap, kinetic, potential, dipole, and quadrupole integrals
        stored in file 35.

  ==> Integral Setup <==

  ==> DFJK: Density-Fitted J/K Matrices <==

    J tasked:                  Yes
    K tasked:                  Yes
    wK tasked:                  No
    OpenMP threads:              1
    Integrals threads:           1
    Memory (MB):              2145
    Algorithm:                Core
    Integral Cache:           NONE
    Schwarz Cutoff:          1E-12
    Fitting Condition:       1E-12

   => Auxiliary Basis Set <=

  Basis Set: cc-pvdz-jkfit
    Number of shells: 104
    Number of basis function: 376
    Number of Cartesian functions: 460
    Spherical Harmonics?: true
    Max angular momentum: 3

  Minimum eigenvalue in the overlap matrix is 9.3578354149E-02.
  Using Symmetric Orthogonalization.
  SCF Guess: Core (One-Electron) Hamiltonian.

  ==> Iterations <==

                           Total Energy        Delta E     RMS |[F,P]|

   @DF-UHF iter   1: -5492.64717337717138   -5.49265e+03   1.67183e-01 
   @DF-UHF iter   2: -5502.17247229086479   -9.52530e+00   5.56549e-02 DIIS
   @DF-UHF iter   3: -5502.50754717017026   -3.35075e-01   3.85067e-03 DIIS
   @DF-UHF iter   4: -5502.51122802179998   -3.68085e-03   5.99796e-04 DIIS
   @DF-UHF iter   5: -5502.51131888551117   -9.08637e-05   9.07212e-05 DIIS
   @DF-UHF iter   6: -5502.51132095493449   -2.06942e-06   8.08714e-06 DIIS
   @DF-UHF iter   7: -5502.51132097168374   -1.67493e-08   2.67404e-07 DIIS
   @DF-UHF iter   8: -5502.51132097170557   -2.18279e-11   5.31068e-08 DIIS
   @DF-UHF iter   9: -5502.51132097170921   -3.63798e-12   4.95307e-09 DIIS

  ==> Post-Iterations <==

   @Spin Contamination Metric:   2.131628207E-14
   @S^2 Expected:                0.000000000E+00
   @S^2 Observed:                2.131628207E-14
   @S   Expected:                0.000000000E+00
   @S   Observed:                0.000000000E+00

	Orbital Energies (a.u.)
	-----------------------

	Alpha Occupied:                                                       

	   1B1u -520.244104     1Ag  -520.244104     2B1u  -69.974740  
	   2Ag   -69.974740     1B3g  -63.083569     1B2g  -63.083569  
	   1B3u  -63.083569     1B2u  -63.083569     3B1u  -63.083569  
	   3Ag   -63.083569     4B1u  -10.880513     4Ag   -10.880510  
	   2B2g   -8.362543     2B3g   -8.362543     2B2u   -8.362543  
	   2B3u   -8.362543     5B1u   -8.362543     5Ag    -8.362543  
	   6B1u   -3.705173     1Au    -3.705173     6Ag    -3.705173  
	   1B1g   -3.705173     7B1u   -3.705172     3B3g   -3.705172  
	   3B2g   -3.705172     3B2u   -3.705171     3B3u   -3.705171  
	   7Ag    -3.705171     8Ag    -1.152048     8B1u   -1.151455  
	   9Ag    -0.525500     4B2u   -0.521737     4B3u   -0.521737  
	   4B3g   -0.520803     4B2g   -0.520803     9B1u   -0.517021  

	Alpha Virtual:                                                        

	  10Ag     0.698992    10B1u    0.726672    11Ag     0.743626  
	   5B2u    0.766907     5B3u    0.766907     5B3g    0.778247  
	   5B2g    0.778247    11B1u    0.826757     2Au     0.864902  
	  12B1u    0.864902     2B1g    0.864903    12Ag     0.864903  
	   6B2u    0.864904     6B3u    0.864904     6B3g    0.864934  
	   6B2g    0.864934    13Ag     0.865313    13B1u    0.867549  

	Beta Occupied:                                                        

	   1B1u -520.244104     1Ag  -520.244104     2B1u  -69.974740  
	   2Ag   -69.974740     1B3g  -63.083569     1B2g  -63.083569  
	   1B3u  -63.083569     1B2u  -63.083569     3B1u  -63.083569  
	   3Ag   -63.083569     4B1u  -10.880513     4Ag   -10.880510  
	   2B2g   -8.362543     2B3g   -8.362543     2B2u   -8.362543  
	   2B3u   -8.362543     5B1u   -8.362543     5Ag    -8.362543  
	   6B1u   -3.705173     1Au    -3.705173     6Ag    -3.705173  
	   1B1g   -3.705173     7B1u   -3.705172     3B3g   -3.705172  
	   3B2g   -3.705172     3B2u   -3.705171     3B3u   -3.705171  
	   7Ag    -3.705171     8Ag    -1.152048     8B1u   -1.151455  
	   9Ag    -0.525500     4B2u   -0.521737     4B3u   -0.521737  
	   4B3g   -0.520803     4B2g   -0.520803     9B1u   -0.517021  

	Beta Virtual:                                                         

	  10Ag     0.698992    10B1u    0.726672    11Ag     0.743626  
	   5B2u    0.766907     5B3u    0.766907     5B3g    0.778247  
	   5B2g    0.778247    11B1u    0.826757     2Au     0.864902  
	  12B1u    0.864902     2B1g    0.864903    12Ag     0.864903  
	   6B2u    0.864904     6B3u    0.864904     6B3g    0.864934  
	   6B2g    0.864934    13Ag     0.865313    13B1u    0.867549  

	Final Occupation by Irrep:
	         Ag   B1g   B2g   B3g    Au   B1u   B2u   B3u 
	DOCC [     9,    1,    4,    4,    1,    9,    4,    4 ]
	SOCC [     0,    0,    0,    0,    0,    0,    0,    0 ]

  Energy converged.

  @DF-UHF Final Energy: -5502.51132097170921

   => Energetics <=

    Nuclear Repulsion Energy =            154.6948110524751598
    One-Electron Energy =               -7967.6958505544598665
    Two-Electron Energy =                2310.4897185302747857
    DFT Exchange-Correlation Energy =       0.0000000000000000
    Empirical Dispersion Energy =           0.0000000000000000
    Total Energy =                      -5502.5113209717092104



Properties will be evaluated at   0.000000,   0.000000,   0.000000 Bohr
  ==> Properties <==


Properties computed using the SCF density density matrix
  Nuclear Dipole Moment: (a.u.)
     X:     0.0000      Y:     0.0000      Z:     0.0000

  Electronic Dipole Moment: (a.u.)
     X:     0.0000      Y:     0.0000      Z:     0.0000

  Dipole Moment: (a.u.)
     X:     0.0000      Y:     0.0000      Z:     0.0000     Total:     0.0000

  Dipole Moment: (Debye)
     X:     0.0000      Y:     0.0000      Z:     0.0000     Total:     0.0000


  Saving occupied orbitals to File 180.

*** tstop() called on cx1-12-6-2.cx1.hpc.ic.ac.uk at Tue Feb  4 14:43:53 2014
Module time:
	user time   =       2.32 seconds =       0.04 minutes
	system time =       0.00 seconds =       0.00 minutes
	total time  =          3 seconds =       0.05 minutes
Total time:
	user time   =      18.07 seconds =       0.30 minutes
	system time =       0.11 seconds =       0.00 minutes
	total time  =         23 seconds =       0.38 minutes

  //>>>>>>>>>>>>>>>>>>>>>>>>>>>>>>>>>>>//
  //               DFMP2               //
  //<<<<<<<<<<<<<<<<<<<<<<<<<<<<<<<<<<<//

  No DF_BASIS_MP2 auxiliary basis selected, defaulting to cc-pvdz-ri

*** tstart() called on cx1-12-6-2.cx1.hpc.ic.ac.uk
*** at Tue Feb  4 14:43:53 2014

	 --------------------------------------------------------
	                          DF-MP2                         
	      2nd-Order Density-Fitted Moller-Plesset Theory     
	              UMP2 Wavefunction,   1 Threads             
	                                                         
	        Rob Parrish, Justin Turney, Andy Simmonett,      
	           Ed Hohenstein, and C. David Sherrill          
	 --------------------------------------------------------

	 --------------------------------------------------------
	                 NBF =    54, NAUX =   228
	 --------------------------------------------------------
	   CLASS    FOCC     OCC    AOCC    AVIR     VIR    FVIR
	   ALPHA       0      36      36      18      18       0
	    BETA       0      36      36      18      18       0
	 --------------------------------------------------------

	----------------------------------------------------------
	 ==================> DF-MP2 Energies <=================== 
	----------------------------------------------------------
	 Reference Energy          =   -5502.5113209717092104 [H]
	 Singles Energy            =      -0.0000000000000013 [H]
	 Same-Spin Energy          =      -0.0845478480864786 [H]
	 Opposite-Spin Energy      =      -0.1942563456320315 [H]
	 Correlation Energy        =      -0.2788041937185115 [H]
	 Total Energy              =   -5502.7901251654275256 [H]
	----------------------------------------------------------
	 ================> DF-SCS-MP2 Energies <================= 
	----------------------------------------------------------
	 SCS Same-Spin Scale       =       0.3333333333333333 [-]
	 SCS Opposite-Spin Scale   =       1.2000000000000000 [-]
	 SCS Same-Spin Energy      =      -0.0281826160288262 [H]
	 SCS Opposite-Spin Energy  =      -0.2331076147584378 [H]
	 SCS Correlation Energy    =      -0.2612902307872653 [H]
	 SCS Total Energy          =   -5502.7726112024965914 [H]
	----------------------------------------------------------


*** tstop() called on cx1-12-6-2.cx1.hpc.ic.ac.uk at Tue Feb  4 14:43:55 2014
Module time:
	user time   =       1.50 seconds =       0.03 minutes
	system time =       0.02 seconds =       0.00 minutes
	total time  =          2 seconds =       0.03 minutes
Total time:
	user time   =      19.57 seconds =       0.33 minutes
	system time =       0.13 seconds =       0.00 minutes
	total time  =         25 seconds =       0.42 minutes
Setting geometry variable R to 4.666667

  No DF_BASIS_SCF auxiliary basis selected, defaulting to cc-pvdz-jkfit


*** tstart() called on cx1-12-6-2.cx1.hpc.ic.ac.uk
*** at Tue Feb  4 14:43:55 2014

	There are an even number of electrons - assuming singlet.
	Specify the multiplicity with the MULTP option in the
	input if this is incorrect


         ---------------------------------------------------------
                                   SCF
            by Justin Turney, Rob Parrish, and Andy Simmonett
                              UHF Reference
                        1 Threads,   3000 MiB Core
         ---------------------------------------------------------

  ==> Geometry <==

    Molecular point group: d2h
    Full point group: D_inf_h

    Geometry (in Angstrom), charge = 0, multiplicity = 1:

       Center              X                  Y                   Z       
    ------------   -----------------  -----------------  -----------------
          KR          0.000000000000     0.000000000000    -2.333333333333
          KR          0.000000000000     0.000000000000     2.333333333333

  Running in d2h symmetry.


	Rotational constants (cm^-1):
	A = **********    B =    0.01802   C =    0.01802

	Rotational constants (MHz):
	A = **********    B =  540.24011   C =  540.24011
  Nuclear repulsion =  146.960070499851412

  Charge       = 0
  Multiplicity = 1
  Electrons    = 72
  Nalpha       = 36
  Nbeta        = 36

  ==> Algorithm <==

  SCF Algorithm Type is DF.
  DIIS enabled.
  MOM disabled.
  Fractional occupation disabled.
  Guess Type is CORE.
  Energy threshold   = 1.00e-08
  Density threshold  = 1.00e-08
  Integral threshold = 0.00e+00

  ==> Primary Basis <==

  Basis Set: CC-PVDZ
    Number of shells: 22
    Number of basis function: 54
    Number of Cartesian functions: 58
    Spherical Harmonics?: true
    Max angular momentum: 2

  ==> Pre-Iterations <==

   -------------------------------------------------------
    Irrep   Nso     Nmo     Nalpha   Nbeta   Ndocc  Nsocc
   -------------------------------------------------------
     Ag        13      13       0       0       0       0
     B1g        2       2       0       0       0       0
     B2g        6       6       0       0       0       0
     B3g        6       6       0       0       0       0
     Au         2       2       0       0       0       0
     B1u       13      13       0       0       0       0
     B2u        6       6       0       0       0       0
     B3u        6       6       0       0       0       0
   -------------------------------------------------------
    Total      54      54      36      36      36       0
   -------------------------------------------------------

 OEINTS: Wrapper to libmints.
   by Justin Turney

   Calculation information:
      Number of atoms:                   2
      Number of AO shells:              22
      Number of SO shells:              11
      Number of primitives:            180
      Number of atomic orbitals:        58
      Number of basis functions:        54

      Number of irreps:                  8
      Number of functions per irrep: [  13    2    6    6    2   13    6    6 ]

      Overlap, kinetic, potential, dipole, and quadrupole integrals
        stored in file 35.

  ==> Integral Setup <==

  ==> DFJK: Density-Fitted J/K Matrices <==

    J tasked:                  Yes
    K tasked:                  Yes
    wK tasked:                  No
    OpenMP threads:              1
    Integrals threads:           1
    Memory (MB):              2145
    Algorithm:                Core
    Integral Cache:           NONE
    Schwarz Cutoff:          1E-12
    Fitting Condition:       1E-12

   => Auxiliary Basis Set <=

  Basis Set: cc-pvdz-jkfit
    Number of shells: 104
    Number of basis function: 376
    Number of Cartesian functions: 460
    Spherical Harmonics?: true
    Max angular momentum: 3

  Minimum eigenvalue in the overlap matrix is 9.3854884431E-02.
  Using Symmetric Orthogonalization.
  SCF Guess: Core (One-Electron) Hamiltonian.

  ==> Iterations <==

                           Total Energy        Delta E     RMS |[F,P]|

   @DF-UHF iter   1: -5492.65704303479197   -5.49266e+03   1.66978e-01 
   @DF-UHF iter   2: -5502.17397058233109   -9.51693e+00   5.56210e-02 DIIS
   @DF-UHF iter   3: -5502.50760326585169   -3.33633e-01   3.84277e-03 DIIS
   @DF-UHF iter   4: -5502.51126308159473   -3.65982e-03   5.99775e-04 DIIS
   @DF-UHF iter   5: -5502.51135388243074   -9.08008e-05   9.01127e-05 DIIS
   @DF-UHF iter   6: -5502.51135592986520   -2.04743e-06   7.42007e-06 DIIS
   @DF-UHF iter   7: -5502.51135594394054   -1.40753e-08   2.41766e-07 DIIS
   @DF-UHF iter   8: -5502.51135594395873   -1.81899e-11   4.40269e-08 DIIS
   @DF-UHF iter   9: -5502.51135594395782    9.09495e-13   4.38762e-09 DIIS

  ==> Post-Iterations <==

   @Spin Contamination Metric:   1.421085472E-14
   @S^2 Expected:                0.000000000E+00
   @S^2 Observed:                1.421085472E-14
   @S   Expected:                0.000000000E+00
   @S   Observed:                0.000000000E+00

	Orbital Energies (a.u.)
	-----------------------

	Alpha Occupied:                                                       

	   1B1u -520.244132     1Ag  -520.244132     2B1u  -69.974765  
	   2Ag   -69.974765     3B1u  -63.083594     3Ag   -63.083594  
	   1B3g  -63.083594     1B2g  -63.083594     1B2u  -63.083594  
	   1B3u  -63.083594     4B1u  -10.880533     4Ag   -10.880532  
	   5B1u   -8.362565     5Ag    -8.362565     2B3g   -8.362565  
	   2B2g   -8.362565     2B2u   -8.362565     2B3u   -8.362565  
	   6B1u   -3.705194     3B2g   -3.705194     3B3g   -3.705194  
	   3B3u   -3.705194     3B2u   -3.705194     7B1u   -3.705194  
	   1Au    -3.705194     6Ag    -3.705193     1B1g   -3.705193  
	   7Ag    -3.705193     8Ag    -1.151918     8B1u   -1.151599  
	   9Ag    -0.524009     4B2u   -0.521552     4B3u   -0.521552  
	   4B2g   -0.521004     4B3g   -0.521004     9B1u   -0.518535  

	Alpha Virtual:                                                        

	  10Ag     0.712001    10B1u    0.725729    11Ag     0.747178  
	   5B3u    0.769172     5B2u    0.769172     5B2g    0.775955  
	   5B3g    0.775955    11B1u    0.809075    12B1u    0.864894  
	   2Au     0.864894    12Ag     0.864895     2B1g    0.864895  
	   6B3u    0.864896     6B2u    0.864896     6B2g    0.864902  
	   6B3g    0.864902    13Ag     0.865013    13B1u    0.865391  

	Beta Occupied:                                                        

	   1B1u -520.244132     1Ag  -520.244132     2B1u  -69.974765  
	   2Ag   -69.974765     3B1u  -63.083594     3Ag   -63.083594  
	   1B3g  -63.083594     1B2g  -63.083594     1B2u  -63.083594  
	   1B3u  -63.083594     4B1u  -10.880533     4Ag   -10.880532  
	   5B1u   -8.362565     5Ag    -8.362565     2B3g   -8.362565  
	   2B2g   -8.362565     2B2u   -8.362565     2B3u   -8.362565  
	   6B1u   -3.705194     3B2g   -3.705194     3B3g   -3.705194  
	   3B3u   -3.705194     3B2u   -3.705194     7B1u   -3.705194  
	   1Au    -3.705194     6Ag    -3.705193     1B1g   -3.705193  
	   7Ag    -3.705193     8Ag    -1.151918     8B1u   -1.151599  
	   9Ag    -0.524009     4B2u   -0.521552     4B3u   -0.521552  
	   4B2g   -0.521004     4B3g   -0.521004     9B1u   -0.518535  

	Beta Virtual:                                                         

	  10Ag     0.712001    10B1u    0.725729    11Ag     0.747178  
	   5B3u    0.769172     5B2u    0.769172     5B2g    0.775955  
	   5B3g    0.775955    11B1u    0.809075    12B1u    0.864894  
	   2Au     0.864894    12Ag     0.864895     2B1g    0.864895  
	   6B3u    0.864896     6B2u    0.864896     6B2g    0.864902  
	   6B3g    0.864902    13Ag     0.865013    13B1u    0.865391  

	Final Occupation by Irrep:
	         Ag   B1g   B2g   B3g    Au   B1u   B2u   B3u 
	DOCC [     9,    1,    4,    4,    1,    9,    4,    4 ]
	SOCC [     0,    0,    0,    0,    0,    0,    0,    0 ]

  Energy converged.

  @DF-UHF Final Energy: -5502.51135594395782

   => Energetics <=

    Nuclear Repulsion Energy =            146.9600704998514118
    One-Electron Energy =               -7952.2250088976416009
    Two-Electron Energy =                2302.7535824538326779
    DFT Exchange-Correlation Energy =       0.0000000000000000
    Empirical Dispersion Energy =           0.0000000000000000
    Total Energy =                      -5502.5113559439578239



Properties will be evaluated at   0.000000,   0.000000,   0.000000 Bohr
  ==> Properties <==


Properties computed using the SCF density density matrix
  Nuclear Dipole Moment: (a.u.)
     X:     0.0000      Y:     0.0000      Z:     0.0000

  Electronic Dipole Moment: (a.u.)
     X:     0.0000      Y:     0.0000      Z:     0.0000

  Dipole Moment: (a.u.)
     X:     0.0000      Y:     0.0000      Z:     0.0000     Total:     0.0000

  Dipole Moment: (Debye)
     X:     0.0000      Y:     0.0000      Z:     0.0000     Total:     0.0000


  Saving occupied orbitals to File 180.

*** tstop() called on cx1-12-6-2.cx1.hpc.ic.ac.uk at Tue Feb  4 14:43:58 2014
Module time:
	user time   =       2.26 seconds =       0.04 minutes
	system time =       0.00 seconds =       0.00 minutes
	total time  =          3 seconds =       0.05 minutes
Total time:
	user time   =      21.85 seconds =       0.36 minutes
	system time =       0.13 seconds =       0.00 minutes
	total time  =         28 seconds =       0.47 minutes

  //>>>>>>>>>>>>>>>>>>>>>>>>>>>>>>>>>>>//
  //               DFMP2               //
  //<<<<<<<<<<<<<<<<<<<<<<<<<<<<<<<<<<<//

  No DF_BASIS_MP2 auxiliary basis selected, defaulting to cc-pvdz-ri

*** tstart() called on cx1-12-6-2.cx1.hpc.ic.ac.uk
*** at Tue Feb  4 14:43:58 2014

	 --------------------------------------------------------
	                          DF-MP2                         
	      2nd-Order Density-Fitted Moller-Plesset Theory     
	              UMP2 Wavefunction,   1 Threads             
	                                                         
	        Rob Parrish, Justin Turney, Andy Simmonett,      
	           Ed Hohenstein, and C. David Sherrill          
	 --------------------------------------------------------

	 --------------------------------------------------------
	                 NBF =    54, NAUX =   228
	 --------------------------------------------------------
	   CLASS    FOCC     OCC    AOCC    AVIR     VIR    FVIR
	   ALPHA       0      36      36      18      18       0
	    BETA       0      36      36      18      18       0
	 --------------------------------------------------------

	----------------------------------------------------------
	 ==================> DF-MP2 Energies <=================== 
	----------------------------------------------------------
	 Reference Energy          =   -5502.5113559439578239 [H]
	 Singles Energy            =      -0.0000000000000010 [H]
	 Same-Spin Energy          =      -0.0845161062396543 [H]
	 Opposite-Spin Energy      =      -0.1942213991463321 [H]
	 Correlation Energy        =      -0.2787375053859875 [H]
	 Total Energy              =   -5502.7900934493436580 [H]
	----------------------------------------------------------
	 ================> DF-SCS-MP2 Energies <================= 
	----------------------------------------------------------
	 SCS Same-Spin Scale       =       0.3333333333333333 [-]
	 SCS Opposite-Spin Scale   =       1.2000000000000000 [-]
	 SCS Same-Spin Energy      =      -0.0281720354132181 [H]
	 SCS Opposite-Spin Energy  =      -0.2330656789755985 [H]
	 SCS Correlation Energy    =      -0.2612377143888177 [H]
	 SCS Total Energy          =   -5502.7725936583465227 [H]
	----------------------------------------------------------


*** tstop() called on cx1-12-6-2.cx1.hpc.ic.ac.uk at Tue Feb  4 14:44:00 2014
Module time:
	user time   =       1.51 seconds =       0.03 minutes
	system time =       0.02 seconds =       0.00 minutes
	total time  =          2 seconds =       0.03 minutes
Total time:
	user time   =      23.36 seconds =       0.39 minutes
	system time =       0.15 seconds =       0.00 minutes
	total time  =         30 seconds =       0.50 minutes
Setting geometry variable R to 4.900000

  No DF_BASIS_SCF auxiliary basis selected, defaulting to cc-pvdz-jkfit


*** tstart() called on cx1-12-6-2.cx1.hpc.ic.ac.uk
*** at Tue Feb  4 14:44:00 2014

	There are an even number of electrons - assuming singlet.
	Specify the multiplicity with the MULTP option in the
	input if this is incorrect


         ---------------------------------------------------------
                                   SCF
            by Justin Turney, Rob Parrish, and Andy Simmonett
                              UHF Reference
                        1 Threads,   3000 MiB Core
         ---------------------------------------------------------

  ==> Geometry <==

    Molecular point group: d2h
    Full point group: D_inf_h

    Geometry (in Angstrom), charge = 0, multiplicity = 1:

       Center              X                  Y                   Z       
    ------------   -----------------  -----------------  -----------------
          KR          0.000000000000     0.000000000000    -2.450000000000
          KR          0.000000000000     0.000000000000     2.450000000000

  Running in d2h symmetry.


	Rotational constants (cm^-1):
	A = **********    B =    0.01635   C =    0.01635

	Rotational constants (MHz):
	A = **********    B =  490.01370   C =  490.01370
  Nuclear repulsion =  139.961971904620384

  Charge       = 0
  Multiplicity = 1
  Electrons    = 72
  Nalpha       = 36
  Nbeta        = 36

  ==> Algorithm <==

  SCF Algorithm Type is DF.
  DIIS enabled.
  MOM disabled.
  Fractional occupation disabled.
  Guess Type is CORE.
  Energy threshold   = 1.00e-08
  Density threshold  = 1.00e-08
  Integral threshold = 0.00e+00

  ==> Primary Basis <==

  Basis Set: CC-PVDZ
    Number of shells: 22
    Number of basis function: 54
    Number of Cartesian functions: 58
    Spherical Harmonics?: true
    Max angular momentum: 2

  ==> Pre-Iterations <==

   -------------------------------------------------------
    Irrep   Nso     Nmo     Nalpha   Nbeta   Ndocc  Nsocc
   -------------------------------------------------------
     Ag        13      13       0       0       0       0
     B1g        2       2       0       0       0       0
     B2g        6       6       0       0       0       0
     B3g        6       6       0       0       0       0
     Au         2       2       0       0       0       0
     B1u       13      13       0       0       0       0
     B2u        6       6       0       0       0       0
     B3u        6       6       0       0       0       0
   -------------------------------------------------------
    Total      54      54      36      36      36       0
   -------------------------------------------------------

 OEINTS: Wrapper to libmints.
   by Justin Turney

   Calculation information:
      Number of atoms:                   2
      Number of AO shells:              22
      Number of SO shells:              11
      Number of primitives:            180
      Number of atomic orbitals:        58
      Number of basis functions:        54

      Number of irreps:                  8
      Number of functions per irrep: [  13    2    6    6    2   13    6    6 ]

      Overlap, kinetic, potential, dipole, and quadrupole integrals
        stored in file 35.

  ==> Integral Setup <==

  ==> DFJK: Density-Fitted J/K Matrices <==

    J tasked:                  Yes
    K tasked:                  Yes
    wK tasked:                  No
    OpenMP threads:              1
    Integrals threads:           1
    Memory (MB):              2145
    Algorithm:                Core
    Integral Cache:           NONE
    Schwarz Cutoff:          1E-12
    Fitting Condition:       1E-12

   => Auxiliary Basis Set <=

  Basis Set: cc-pvdz-jkfit
    Number of shells: 104
    Number of basis function: 376
    Number of Cartesian functions: 460
    Spherical Harmonics?: true
    Max angular momentum: 3

  Minimum eigenvalue in the overlap matrix is 9.3995114182E-02.
  Using Symmetric Orthogonalization.
  SCF Guess: Core (One-Electron) Hamiltonian.

  ==> Iterations <==

                           Total Energy        Delta E     RMS |[F,P]|

   @DF-UHF iter   1: -5492.66366790836037   -5.49266e+03   1.66831e-01 
   @DF-UHF iter   2: -5502.17504708027082   -9.51138e+00   5.55992e-02 DIIS
   @DF-UHF iter   3: -5502.50762259745170   -3.32576e-01   3.83706e-03 DIIS
   @DF-UHF iter   4: -5502.51126734953777   -3.64475e-03   5.99465e-04 DIIS
   @DF-UHF iter   5: -5502.51135803683701   -9.06873e-05   8.96135e-05 DIIS
   @DF-UHF iter   6: -5502.51136006599791   -2.02916e-06   6.80702e-06 DIIS
   @DF-UHF iter   7: -5502.51136007782225   -1.18243e-08   2.25839e-07 DIIS
   @DF-UHF iter   8: -5502.51136007783316   -1.09139e-11   3.72452e-08 DIIS
   @DF-UHF iter   9: -5502.51136007783498   -1.81899e-12   3.94205e-09 DIIS

  ==> Post-Iterations <==

   @Spin Contamination Metric:   7.105427358E-15
   @S^2 Expected:                0.000000000E+00
   @S^2 Observed:                7.105427358E-15
   @S   Expected:                0.000000000E+00
   @S   Observed:                0.000000000E+00

	Orbital Energies (a.u.)
	-----------------------

[...]
   @DF-UHF iter   6: -5502.51135006467939   -1.96490e-06   3.73792e-06 DIIS
   @DF-UHF iter   7: -5502.51135006818549   -3.50610e-09   2.12229e-07 DIIS
   @DF-UHF iter   8: -5502.51135006819823   -1.27329e-11   1.39839e-08 DIIS
   @DF-UHF iter   9: -5502.51135006819550    2.72848e-12   2.15752e-09 DIIS

  ==> Post-Iterations <==

   @Spin Contamination Metric:   2.842170943E-14
   @S^2 Expected:                0.000000000E+00
   @S^2 Observed:                2.842170943E-14
   @S   Expected:                0.000000000E+00
   @S   Observed:                0.000000000E+00

	Orbital Energies (a.u.)
	-----------------------

	Alpha Occupied:                                                       

	   1B1u -520.244135     1Ag  -520.244135     2B1u  -69.974767  
	   2Ag   -69.974767     3B1u  -63.083597     3Ag   -63.083597  
	   1B3g  -63.083597     1B2g  -63.083597     1B2u  -63.083597  
	   1B3u  -63.083597     4B1u  -10.880533     4Ag   -10.880533  
	   5B1u   -8.362565     5Ag    -8.362565     2B3g   -8.362565  
	   2B2g   -8.362565     2B2u   -8.362565     2B3u   -8.362565  
	   6B1u   -3.705194     6Ag    -3.705194     3B3g   -3.705194  
	   3B2g   -3.705194     3B2u   -3.705194     3B3u   -3.705194  
	   1Au    -3.705194     7B1u   -3.705194     1B1g   -3.705194  
	   7Ag    -3.705194     8Ag    -1.151756     8B1u   -1.151756  
	   9Ag    -0.521289     4B2u   -0.521276     4B3u   -0.521276  
	   4B3g   -0.521275     4B2g   -0.521275     9B1u   -0.521261  

	Alpha Virtual:                                                        

	  10Ag     0.723230    10B1u    0.723237    11Ag     0.772418  
	   5B3u    0.772554     5B2u    0.772554     5B3g    0.772566  
	   5B2g    0.772566    11B1u    0.772699     2Au     0.864898  
	  12B1u    0.864898     2B1g    0.864898    12Ag     0.864898  
	   6B3g    0.864898     6B2g    0.864898     6B2u    0.864898  
	   6B3u    0.864898    13Ag     0.864898    13B1u    0.864898  

	Beta Occupied:                                                        

	   1B1u -520.244135     1Ag  -520.244135     2B1u  -69.974767  
	   2Ag   -69.974767     3B1u  -63.083597     3Ag   -63.083597  
	   1B3g  -63.083597     1B2g  -63.083597     1B2u  -63.083597  
	   1B3u  -63.083597     4B1u  -10.880533     4Ag   -10.880533  
	   5B1u   -8.362565     5Ag    -8.362565     2B3g   -8.362565  
	   2B2g   -8.362565     2B2u   -8.362565     2B3u   -8.362565  
	   6B1u   -3.705194     6Ag    -3.705194     3B3g   -3.705194  
	   3B2g   -3.705194     3B2u   -3.705194     3B3u   -3.705194  
	   1Au    -3.705194     7B1u   -3.705194     1B1g   -3.705194  
	   7Ag    -3.705194     8Ag    -1.151756     8B1u   -1.151756  
	   9Ag    -0.521289     4B2u   -0.521276     4B3u   -0.521276  
	   4B3g   -0.521275     4B2g   -0.521275     9B1u   -0.521261  

	Beta Virtual:                                                         

	  10Ag     0.723230    10B1u    0.723237    11Ag     0.772418  
	   5B3u    0.772554     5B2u    0.772554     5B3g    0.772566  
	   5B2g    0.772566    11B1u    0.772699     2Au     0.864898  
	  12B1u    0.864898     2B1g    0.864898    12Ag     0.864898  
	   6B3g    0.864898     6B2g    0.864898     6B2u    0.864898  
	   6B3u    0.864898    13Ag     0.864898    13B1u    0.864898  

	Final Occupation by Irrep:
	         Ag   B1g   B2g   B3g    Au   B1u   B2u   B3u 
	DOCC [     9,    1,    4,    4,    1,    9,    4,    4 ]
	SOCC [     0,    0,    0,    0,    0,    0,    0,    0 ]

  Energy converged.

  @DF-UHF Final Energy: -5502.51135006819550

   => Energetics <=

    Nuclear Repulsion Energy =            101.3517727585182797
    One-Electron Energy =               -7861.0083525340942288
    Two-Electron Energy =                2257.1452297073801674
    DFT Exchange-Correlation Energy =       0.0000000000000000
    Empirical Dispersion Energy =           0.0000000000000000
    Total Energy =                      -5502.5113500681954974



Properties will be evaluated at   0.000000,   0.000000,   0.000000 Bohr
  ==> Properties <==


Properties computed using the SCF density density matrix
  Nuclear Dipole Moment: (a.u.)
     X:     0.0000      Y:     0.0000      Z:     0.0000

  Electronic Dipole Moment: (a.u.)
     X:     0.0000      Y:     0.0000      Z:     0.0000

  Dipole Moment: (a.u.)
     X:     0.0000      Y:     0.0000      Z:     0.0000     Total:     0.0000

  Dipole Moment: (Debye)
     X:     0.0000      Y:     0.0000      Z:     0.0000     Total:     0.0000


  Saving occupied orbitals to File 180.

*** tstop() called on cx1-12-6-2.cx1.hpc.ic.ac.uk at Tue Feb  4 14:44:39 2014
Module time:
	user time   =       2.01 seconds =       0.03 minutes
	system time =       0.00 seconds =       0.00 minutes
	total time  =          3 seconds =       0.05 minutes
Total time:
	user time   =      54.15 seconds =       0.90 minutes
	system time =       0.32 seconds =       0.01 minutes
	total time  =         69 seconds =       1.15 minutes

  //>>>>>>>>>>>>>>>>>>>>>>>>>>>>>>>>>>>//
  //               DFMP2               //
  //<<<<<<<<<<<<<<<<<<<<<<<<<<<<<<<<<<<//

  No DF_BASIS_MP2 auxiliary basis selected, defaulting to cc-pvdz-ri

*** tstart() called on cx1-12-6-2.cx1.hpc.ic.ac.uk
*** at Tue Feb  4 14:44:39 2014

	 --------------------------------------------------------
	                          DF-MP2                         
	      2nd-Order Density-Fitted Moller-Plesset Theory     
	              UMP2 Wavefunction,   1 Threads             
	                                                         
	        Rob Parrish, Justin Turney, Andy Simmonett,      
	           Ed Hohenstein, and C. David Sherrill          
	 --------------------------------------------------------

	 --------------------------------------------------------
	                 NBF =    54, NAUX =   228
	 --------------------------------------------------------
	   CLASS    FOCC     OCC    AOCC    AVIR     VIR    FVIR
	   ALPHA       0      36      36      18      18       0
	    BETA       0      36      36      18      18       0
	 --------------------------------------------------------

	----------------------------------------------------------
	 ==================> DF-MP2 Energies <=================== 
	----------------------------------------------------------
	 Reference Energy          =   -5502.5113500681954974 [H]
	 Singles Energy            =      -0.0000000000000003 [H]
	 Same-Spin Energy          =      -0.0844521498492806 [H]
	 Opposite-Spin Energy      =      -0.1941544288493348 [H]
	 Correlation Energy        =      -0.2786065786986156 [H]
	 Total Energy              =   -5502.7899566468940975 [H]
	----------------------------------------------------------
	 ================> DF-SCS-MP2 Energies <================= 
	----------------------------------------------------------
	 SCS Same-Spin Scale       =       0.3333333333333333 [-]
	 SCS Opposite-Spin Scale   =       1.2000000000000000 [-]
	 SCS Same-Spin Energy      =      -0.0281507166164269 [H]
	 SCS Opposite-Spin Energy  =      -0.2329853146192017 [H]
	 SCS Correlation Energy    =      -0.2611360312356288 [H]
	 SCS Total Energy          =   -5502.7724860994312621 [H]
	----------------------------------------------------------


*** tstop() called on cx1-12-6-2.cx1.hpc.ic.ac.uk at Tue Feb  4 14:44:40 2014
Module time:
	user time   =       1.49 seconds =       0.02 minutes
	system time =       0.02 seconds =       0.00 minutes
	total time  =          1 seconds =       0.02 minutes
Total time:
	user time   =      55.64 seconds =       0.93 minutes
	system time =       0.34 seconds =       0.01 minutes
	total time  =         70 seconds =       1.17 minutes
Setting geometry variable R to 7.000000

  No DF_BASIS_SCF auxiliary basis selected, defaulting to cc-pvdz-jkfit


*** tstart() called on cx1-12-6-2.cx1.hpc.ic.ac.uk
*** at Tue Feb  4 14:44:40 2014

	There are an even number of electrons - assuming singlet.
	Specify the multiplicity with the MULTP option in the
	input if this is incorrect


         ---------------------------------------------------------
                                   SCF
            by Justin Turney, Rob Parrish, and Andy Simmonett
                              UHF Reference
                        1 Threads,   3000 MiB Core
         ---------------------------------------------------------

  ==> Geometry <==

    Molecular point group: d2h
    Full point group: D_inf_h

    Geometry (in Angstrom), charge = 0, multiplicity = 1:

       Center              X                  Y                   Z       
    ------------   -----------------  -----------------  -----------------
          KR          0.000000000000     0.000000000000    -3.500000000000
          KR          0.000000000000     0.000000000000     3.500000000000

  Running in d2h symmetry.


	Rotational constants (cm^-1):
	A = **********    B =    0.00801   C =    0.00801

	Rotational constants (MHz):
	A = **********    B =  240.10671   C =  240.10671
  Nuclear repulsion =   97.973380333234303

  Charge       = 0
  Multiplicity = 1
  Electrons    = 72
  Nalpha       = 36
  Nbeta        = 36

  ==> Algorithm <==

  SCF Algorithm Type is DF.
  DIIS enabled.
  MOM disabled.
  Fractional occupation disabled.
  Guess Type is CORE.
  Energy threshold   = 1.00e-08
  Density threshold  = 1.00e-08
  Integral threshold = 0.00e+00

  ==> Primary Basis <==

  Basis Set: CC-PVDZ
    Number of shells: 22
    Number of basis function: 54
    Number of Cartesian functions: 58
    Spherical Harmonics?: true
    Max angular momentum: 2

  ==> Pre-Iterations <==

   -------------------------------------------------------
    Irrep   Nso     Nmo     Nalpha   Nbeta   Ndocc  Nsocc
   -------------------------------------------------------
     Ag        13      13       0       0       0       0
     B1g        2       2       0       0       0       0
     B2g        6       6       0       0       0       0
     B3g        6       6       0       0       0       0
     Au         2       2       0       0       0       0
     B1u       13      13       0       0       0       0
     B2u        6       6       0       0       0       0
     B3u        6       6       0       0       0       0
   -------------------------------------------------------
    Total      54      54      36      36      36       0
   -------------------------------------------------------

 OEINTS: Wrapper to libmints.
   by Justin Turney

   Calculation information:
      Number of atoms:                   2
      Number of AO shells:              22
      Number of SO shells:              11
      Number of primitives:            180
      Number of atomic orbitals:        58
      Number of basis functions:        54

      Number of irreps:                  8
      Number of functions per irrep: [  13    2    6    6    2   13    6    6 ]

      Overlap, kinetic, potential, dipole, and quadrupole integrals
        stored in file 35.

  ==> Integral Setup <==

  ==> DFJK: Density-Fitted J/K Matrices <==

    J tasked:                  Yes
    K tasked:                  Yes
    wK tasked:                  No
    OpenMP threads:              1
    Integrals threads:           1
    Memory (MB):              2145
    Algorithm:                Core
    Integral Cache:           NONE
    Schwarz Cutoff:          1E-12
    Fitting Condition:       1E-12

   => Auxiliary Basis Set <=

  Basis Set: cc-pvdz-jkfit
    Number of shells: 104
    Number of basis function: 376
    Number of Cartesian functions: 460
    Spherical Harmonics?: true
    Max angular momentum: 3

  Minimum eigenvalue in the overlap matrix is 9.4122748822E-02.
  Using Symmetric Orthogonalization.
  SCF Guess: Core (One-Electron) Hamiltonian.

  ==> Iterations <==

                           Total Energy        Delta E     RMS |[F,P]|

   @DF-UHF iter   1: -5492.68307840515445   -5.49268e+03   1.66358e-01 
   @DF-UHF iter   2: -5502.17824614459369   -9.49517e+00   5.55469e-02 DIIS
   @DF-UHF iter   3: -5502.50765665892686   -3.29411e-01   3.82072e-03 DIIS
   @DF-UHF iter   4: -5502.51125804368712   -3.60138e-03   5.97251e-04 DIIS
   @DF-UHF iter   5: -5502.51134807661492   -9.00329e-05   8.77864e-05 DIIS
   @DF-UHF iter   6: -5502.51135003831041   -1.96170e-06   3.50781e-06 DIIS
   @DF-UHF iter   7: -5502.51135004138632   -3.07591e-09   2.14672e-07 DIIS
   @DF-UHF iter   8: -5502.51135004139451   -8.18545e-12   1.27822e-08 DIIS
   @DF-UHF iter   9: -5502.51135004140087   -6.36646e-12   2.00985e-09 DIIS

  ==> Post-Iterations <==

   @Spin Contamination Metric:  -3.552713679E-14
   @S^2 Expected:                0.000000000E+00
   @S^2 Observed:               -3.552713679E-14
   @S   Expected:                0.000000000E+00
   @S   Observed:                0.000000000E+00

	Orbital Energies (a.u.)
	-----------------------

	Alpha Occupied:                                                       

	   1B1u -520.244135     1Ag  -520.244135     2B1u  -69.974767  
	   2Ag   -69.974767     3B1u  -63.083597     3Ag   -63.083597  
	   1B2g  -63.083597     1B3g  -63.083597     1B3u  -63.083597  
	   1B2u  -63.083597     4B1u  -10.880533     4Ag   -10.880533  
	   5B1u   -8.362565     5Ag    -8.362565     2B3g   -8.362565  
	   2B2g   -8.362565     2B2u   -8.362565     2B3u   -8.362565  
	   6B1u   -3.705194     6Ag    -3.705194     3B2g   -3.705194  
	   3B3g   -3.705194     3B2u   -3.705194     3B3u   -3.705194  
	   1Au    -3.705194     7B1u   -3.705194     1B1g   -3.705194  
	   7Ag    -3.705194     8Ag    -1.151756     8B1u   -1.151756  
	   9Ag    -0.521282     4B2u   -0.521276     4B3u   -0.521276  
	   4B2g   -0.521275     4B3g   -0.521275     9B1u   -0.521269  

	Alpha Virtual:                                                        

	  10Ag     0.723232    10B1u    0.723235    11Ag     0.772496  
	   5B2u    0.772557     5B3u    0.772557     5B2g    0.772562  
	   5B3g    0.772562    11B1u    0.772621     2Au     0.864898  
	  12B1u    0.864898     2B1g    0.864898    12Ag     0.864898  
	   6B2g    0.864898     6B3g    0.864898     6B3u    0.864898  
	   6B2u    0.864898    13Ag     0.864898    13B1u    0.864898  

	Beta Occupied:                                                        

	   1B1u -520.244135     1Ag  -520.244135     2B1u  -69.974767  
	   2Ag   -69.974767     3B1u  -63.083597     3Ag   -63.083597  
	   1B2g  -63.083597     1B3g  -63.083597     1B3u  -63.083597  
	   1B2u  -63.083597     4B1u  -10.880533     4Ag   -10.880533  
	   5B1u   -8.362565     5Ag    -8.362565     2B3g   -8.362565  
	   2B2g   -8.362565     2B2u   -8.362565     2B3u   -8.362565  
	   6B1u   -3.705194     6Ag    -3.705194     3B2g   -3.705194  
	   3B3g   -3.705194     3B2u   -3.705194     3B3u   -3.705194  
	   1Au    -3.705194     7B1u   -3.705194     1B1g   -3.705194  
	   7Ag    -3.705194     8Ag    -1.151756     8B1u   -1.151756  
	   9Ag    -0.521282     4B2u   -0.521276     4B3u   -0.521276  
	   4B2g   -0.521275     4B3g   -0.521275     9B1u   -0.521269  

	Beta Virtual:                                                         

	  10Ag     0.723232    10B1u    0.723235    11Ag     0.772496  
	   5B2u    0.772557     5B3u    0.772557     5B2g    0.772562  
	   5B3g    0.772562    11B1u    0.772621     2Au     0.864898  
	  12B1u    0.864898     2B1g    0.864898    12Ag     0.864898  
	   6B2g    0.864898     6B3g    0.864898     6B3u    0.864898  
	   6B2u    0.864898    13Ag     0.864898    13B1u    0.864898  

	Final Occupation by Irrep:
	         Ag   B1g   B2g   B3g    Au   B1u   B2u   B3u 
	DOCC [     9,    1,    4,    4,    1,    9,    4,    4 ]
	SOCC [     0,    0,    0,    0,    0,    0,    0,    0 ]

  Energy converged.

  @DF-UHF Final Energy: -5502.51135004140087

   => Energetics <=

    Nuclear Repulsion Energy =             97.9733803332343030
    One-Electron Energy =               -7854.2515716375064585
    Two-Electron Energy =                2253.7668412628704573
    DFT Exchange-Correlation Energy =       0.0000000000000000
    Empirical Dispersion Energy =           0.0000000000000000
    Total Energy =                      -5502.5113500414008740



Properties will be evaluated at   0.000000,   0.000000,   0.000000 Bohr
  ==> Properties <==


Properties computed using the SCF density density matrix
  Nuclear Dipole Moment: (a.u.)
     X:     0.0000      Y:     0.0000      Z:    -0.0000

  Electronic Dipole Moment: (a.u.)
     X:     0.0000      Y:     0.0000      Z:     0.0000

  Dipole Moment: (a.u.)
     X:     0.0000      Y:     0.0000      Z:    -0.0000     Total:     0.0000

  Dipole Moment: (Debye)
     X:     0.0000      Y:     0.0000      Z:    -0.0000     Total:     0.0000


  Saving occupied orbitals to File 180.

*** tstop() called on cx1-12-6-2.cx1.hpc.ic.ac.uk at Tue Feb  4 14:44:43 2014
Module time:
	user time   =       2.00 seconds =       0.03 minutes
	system time =       0.00 seconds =       0.00 minutes
	total time  =          3 seconds =       0.05 minutes
Total time:
	user time   =      57.67 seconds =       0.96 minutes
	system time =       0.34 seconds =       0.01 minutes
	total time  =         73 seconds =       1.22 minutes

  //>>>>>>>>>>>>>>>>>>>>>>>>>>>>>>>>>>>//
  //               DFMP2               //
  //<<<<<<<<<<<<<<<<<<<<<<<<<<<<<<<<<<<//

  No DF_BASIS_MP2 auxiliary basis selected, defaulting to cc-pvdz-ri

*** tstart() called on cx1-12-6-2.cx1.hpc.ic.ac.uk
*** at Tue Feb  4 14:44:43 2014

	 --------------------------------------------------------
	                          DF-MP2                         
	      2nd-Order Density-Fitted Moller-Plesset Theory     
	              UMP2 Wavefunction,   1 Threads             
	                                                         
	        Rob Parrish, Justin Turney, Andy Simmonett,      
	           Ed Hohenstein, and C. David Sherrill          
	 --------------------------------------------------------

	 --------------------------------------------------------
	                 NBF =    54, NAUX =   228
	 --------------------------------------------------------
	   CLASS    FOCC     OCC    AOCC    AVIR     VIR    FVIR
	   ALPHA       0      36      36      18      18       0
	    BETA       0      36      36      18      18       0
	 --------------------------------------------------------

	----------------------------------------------------------
	 ==================> DF-MP2 Energies <=================== 
	----------------------------------------------------------
	 Reference Energy          =   -5502.5113500414008740 [H]
	 Singles Energy            =      -0.0000000000000002 [H]
	 Same-Spin Energy          =      -0.0844509039960400 [H]
	 Opposite-Spin Energy      =      -0.1941531768346176 [H]
	 Correlation Energy        =      -0.2786040808306578 [H]
	 Total Energy              =   -5502.7899541222313928 [H]
	----------------------------------------------------------
	 ================> DF-SCS-MP2 Energies <================= 
	----------------------------------------------------------
	 SCS Same-Spin Scale       =       0.3333333333333333 [-]
	 SCS Opposite-Spin Scale   =       1.2000000000000000 [-]
	 SCS Same-Spin Energy      =      -0.0281503013320133 [H]
	 SCS Opposite-Spin Energy  =      -0.2329838122015412 [H]
	 SCS Correlation Energy    =      -0.2611341135335547 [H]
	 SCS Total Energy          =   -5502.7724841549343182 [H]
	----------------------------------------------------------


*** tstop() called on cx1-12-6-2.cx1.hpc.ic.ac.uk at Tue Feb  4 14:44:45 2014
Module time:
	user time   =       1.51 seconds =       0.03 minutes
	system time =       0.02 seconds =       0.00 minutes
	total time  =          2 seconds =       0.03 minutes
Total time:
	user time   =      59.18 seconds =       0.99 minutes
	system time =       0.36 seconds =       0.01 minutes
	total time  =         75 seconds =       1.25 minutes

*** PSI4 exiting successfully. Buy a developer a beer!
