    -----------------------------------------------------------------------
          PSI4: An Open-Source Ab Initio Electronic Structure Package
                              PSI 4.0.0-beta5+ Driver

               Git: Rev {master} eab4c2bf53d0cfe2fa7ff775dfb81b740d89e238

    J. M. Turney, A. C. Simmonett, R. M. Parrish, E. G. Hohenstein,
    F. A. Evangelista, J. T. Fermann, B. J. Mintz, L. A. Burns, J. J. Wilke,
    M. L. Abrams, N. J. Russ, M. L. Leininger, C. L. Janssen, E. T. Seidl,
    W. D. Allen, H. F. Schaefer, R. A. King, E. F. Valeev, C. D. Sherrill,
    and T. D. Crawford, WIREs Comput. Mol. Sci. 2, 556-565 (2012)
    (doi: 10.1002/wcms.93)

                         Additional Contributions by
    A. E. DePrince, M. Saitow, U. Bozkaya, A. Yu. Sokolov
    -----------------------------------------------------------------------

    Process ID:  18671
    PSI4DATADIR: /home/wv111/local/share/psi/

    Using LocalCommunicator (Number of processes = 1)

    Memory level set to 256.000 MB

  ==> Input File <==

--------------------------------------------------------------------------
memory 2000 mb

molecule dimer {
  Ne
  Ne 1 R
}

set basis cc-pVDZ
set reference uhf

for r in [2.30, 2.35, 2.40, 2.45, 2.50, 2.55, 2.60, 2.65, 2.70, 2.75, 2.80, 2.95, 3.00, 3.05, 3.10, 3.15, 3.20, 3.25, 3.30, 3.35] :
    dimer.R = r
    energy('mp2')
--------------------------------------------------------------------------

  Memory set to   2.000 GiB by Python script.
Setting geometry variable R to 2.300000

  No DF_BASIS_SCF auxiliary basis selected, defaulting to cc-pvdz-jkfit


*** tstart() called on cx1-12-6-9.cx1.hpc.ic.ac.uk
*** at Wed Feb  5 14:31:54 2014

	There are an even number of electrons - assuming singlet.
	Specify the multiplicity with the MULTP option in the
	input if this is incorrect


         ---------------------------------------------------------
                                   SCF
            by Justin Turney, Rob Parrish, and Andy Simmonett
                              UHF Reference
                        1 Threads,   2000 MiB Core
         ---------------------------------------------------------

  ==> Geometry <==

    Molecular point group: d2h
    Full point group: D_inf_h

    Geometry (in Angstrom), charge = 0, multiplicity = 1:

       Center              X                  Y                   Z       
    ------------   -----------------  -----------------  -----------------
          NE          0.000000000000     0.000000000000    -1.150000000000
          NE          0.000000000000     0.000000000000     1.150000000000

  Running in d2h symmetry.


	Rotational constants (cm^-1):
	A = **********    B =    0.31879   C =    0.31879

	Rotational constants (MHz):
	A = **********    B = 9557.09085   C = 9557.09085
  Nuclear repulsion =   23.007704721304350

  Charge       = 0
  Multiplicity = 1
  Electrons    = 20
  Nalpha       = 10
  Nbeta        = 10

  ==> Algorithm <==

  SCF Algorithm Type is DF.
  DIIS enabled.
  MOM disabled.
  Fractional occupation disabled.
  Guess Type is CORE.
  Energy threshold   = 1.00e-08
  Density threshold  = 1.00e-08
  Integral threshold = 0.00e+00

  ==> Primary Basis <==

  Basis Set: CC-PVDZ
    Number of shells: 12
    Number of basis function: 28
    Number of Cartesian functions: 30
    Spherical Harmonics?: true
    Max angular momentum: 2

  ==> Pre-Iterations <==

   -------------------------------------------------------
    Irrep   Nso     Nmo     Nalpha   Nbeta   Ndocc  Nsocc
   -------------------------------------------------------
     Ag         7       7       0       0       0       0
     B1g        1       1       0       0       0       0
     B2g        3       3       0       0       0       0
     B3g        3       3       0       0       0       0
     Au         1       1       0       0       0       0
     B1u        7       7       0       0       0       0
     B2u        3       3       0       0       0       0
     B3u        3       3       0       0       0       0
   -------------------------------------------------------
    Total      28      28      10      10      10       0
   -------------------------------------------------------

 OEINTS: Wrapper to libmints.
   by Justin Turney

   Calculation information:
      Number of atoms:                   2
      Number of AO shells:              12
      Number of SO shells:               6
      Number of primitives:             44
      Number of atomic orbitals:        30
      Number of basis functions:        28

      Number of irreps:                  8
      Number of functions per irrep: [   7    1    3    3    1    7    3    3 ]

      Overlap, kinetic, potential, dipole, and quadrupole integrals
        stored in file 35.

  ==> Integral Setup <==

  ==> DFJK: Density-Fitted J/K Matrices <==

    J tasked:                  Yes
    K tasked:                  Yes
    wK tasked:                  No
    OpenMP threads:              1
    Integrals threads:           1
    Memory (MB):              1430
    Algorithm:                Core
    Integral Cache:           NONE
    Schwarz Cutoff:          1E-12
    Fitting Condition:       1E-12

   => Auxiliary Basis Set <=

  Basis Set: cc-pvdz-jkfit
    Number of shells: 48
    Number of basis function: 140
    Number of Cartesian functions: 162
    Spherical Harmonics?: true
    Max angular momentum: 3

  Minimum eigenvalue in the overlap matrix is 1.8821278822E-01.
  Using Symmetric Orthogonalization.
  SCF Guess: Core (One-Electron) Hamiltonian.

  ==> Iterations <==

                           Total Energy        Delta E     RMS |[F,P]|

   @DF-UHF iter   1:  -245.50361348844601   -2.45504e+02   3.96052e-01 
   @DF-UHF iter   2:  -254.75058359636361   -9.24697e+00   2.57464e-01 DIIS
   @DF-UHF iter   3:  -256.97172630560556   -2.22114e+00   1.02482e-02 DIIS
   @DF-UHF iter   4:  -256.97544138025876   -3.71507e-03   1.90423e-03 DIIS
   @DF-UHF iter   5:  -256.97552218017313   -8.07999e-05   3.87201e-04 DIIS
   @DF-UHF iter   6:  -256.97552605536328   -3.87519e-06   1.40860e-05 DIIS
   @DF-UHF iter   7:  -256.97552605978740   -4.42412e-09   5.25155e-07 DIIS
   @DF-UHF iter   8:  -256.97552605980559   -1.81899e-11   7.94184e-08 DIIS
   @DF-UHF iter   9:  -256.97552605980593   -3.41061e-13   1.33474e-08 DIIS
   @DF-UHF iter  10:  -256.97552605980593    0.00000e+00   2.10104e-09 DIIS

  ==> Post-Iterations <==

   @Spin Contamination Metric:  -1.065814104E-14
   @S^2 Expected:                0.000000000E+00
   @S^2 Observed:               -1.065814104E-14
   @S   Expected:                0.000000000E+00
   @S   Observed:                0.000000000E+00

	Orbital Energies (a.u.)
	-----------------------

	Alpha Occupied:                                                       

	   1B1u  -32.764397     1Ag   -32.764389     2Ag    -1.922799  
	   2B1u   -1.914150     3Ag    -0.854818     1B2u   -0.835380  
	   1B3u   -0.835380     1B3g   -0.827812     1B2g   -0.827812  
	   3B1u   -0.808372  

	Alpha Virtual:                                                        

	   4Ag     1.512911     2B3u    1.656944     2B2u    1.656944  
	   2B2g    1.734582     2B3g    1.734582     4B1u    1.869325  
	   5Ag     2.122470     5B1u    2.304245     1Au     5.197532  
	   6B1u    5.197532     3B3g    5.197546     3B2g    5.197546  
	   1B1g    5.197547     6Ag     5.197547     3B2u    5.197550  
	   3B3u    5.197550     7Ag     5.198368     7B1u    5.199509  

	Beta Occupied:                                                        

	   1B1u  -32.764397     1Ag   -32.764389     2Ag    -1.922799  
	   2B1u   -1.914150     3Ag    -0.854818     1B2u   -0.835380  
	   1B3u   -0.835380     1B3g   -0.827812     1B2g   -0.827812  
	   3B1u   -0.808372  

	Beta Virtual:                                                         

	   4Ag     1.512911     2B3u    1.656944     2B2u    1.656944  
	   2B2g    1.734582     2B3g    1.734582     4B1u    1.869325  
	   5Ag     2.122470     5B1u    2.304245     1Au     5.197532  
	   6B1u    5.197532     3B3g    5.197546     3B2g    5.197546  
	   1B1g    5.197547     6Ag     5.197547     3B2u    5.197550  
	   3B3u    5.197550     7Ag     5.198368     7B1u    5.199509  

	Final Occupation by Irrep:
	         Ag   B1g   B2g   B3g    Au   B1u   B2u   B3u 
	DOCC [     3,    0,    1,    1,    0,    3,    1,    1 ]
	SOCC [     0,    0,    0,    0,    0,    0,    0,    0 ]

  Energy converged.

  @DF-UHF Final Energy:  -256.97552605980593

   => Energetics <=

    Nuclear Repulsion Energy =             23.0077047213043500
    One-Electron Energy =                -411.2558364288142911
    Two-Electron Energy =                 131.2726056477040402
    DFT Exchange-Correlation Energy =       0.0000000000000000
    Empirical Dispersion Energy =           0.0000000000000000
    Total Energy =                       -256.9755260598059294



Properties will be evaluated at   0.000000,   0.000000,   0.000000 Bohr
  ==> Properties <==


Properties computed using the SCF density density matrix
  Nuclear Dipole Moment: (a.u.)
     X:     0.0000      Y:     0.0000      Z:     0.0000

  Electronic Dipole Moment: (a.u.)
     X:     0.0000      Y:     0.0000      Z:     0.0000

  Dipole Moment: (a.u.)
     X:     0.0000      Y:     0.0000      Z:     0.0000     Total:     0.0000

  Dipole Moment: (Debye)
     X:     0.0000      Y:     0.0000      Z:     0.0000     Total:     0.0000


  Saving occupied orbitals to File 180.

*** tstop() called on cx1-12-6-9.cx1.hpc.ic.ac.uk at Wed Feb  5 14:31:55 2014
Module time:
	user time   =       0.19 seconds =       0.00 minutes
	system time =       0.01 seconds =       0.00 minutes
	total time  =          1 seconds =       0.02 minutes
Total time:
	user time   =       0.19 seconds =       0.00 minutes
	system time =       0.01 seconds =       0.00 minutes
	total time  =          1 seconds =       0.02 minutes

  //>>>>>>>>>>>>>>>>>>>>>>>>>>>>>>>>>>>//
  //               DFMP2               //
  //<<<<<<<<<<<<<<<<<<<<<<<<<<<<<<<<<<<//

  No DF_BASIS_MP2 auxiliary basis selected, defaulting to cc-pvdz-ri

*** tstart() called on cx1-12-6-9.cx1.hpc.ic.ac.uk
*** at Wed Feb  5 14:31:55 2014

	 --------------------------------------------------------
	                          DF-MP2                         
	      2nd-Order Density-Fitted Moller-Plesset Theory     
	              UMP2 Wavefunction,   1 Threads             
	                                                         
	        Rob Parrish, Justin Turney, Andy Simmonett,      
	           Ed Hohenstein, and C. David Sherrill          
	 --------------------------------------------------------

	 --------------------------------------------------------
	                 NBF =    28, NAUX =   112
	 --------------------------------------------------------
	   CLASS    FOCC     OCC    AOCC    AVIR     VIR    FVIR
	   ALPHA       0      10      10      18      18       0
	    BETA       0      10      10      18      18       0
	 --------------------------------------------------------

	----------------------------------------------------------
	 ==================> DF-MP2 Energies <=================== 
	----------------------------------------------------------
	 Reference Energy          =    -256.9755260598059294 [H]
	 Singles Energy            =      -0.0000000000000000 [H]
	 Same-Spin Energy          =      -0.1032374376641407 [H]
	 Opposite-Spin Energy      =      -0.2721124831543129 [H]
	 Correlation Energy        =      -0.3753499208184536 [H]
	 Total Energy              =    -257.3508759806243802 [H]
	----------------------------------------------------------
	 ================> DF-SCS-MP2 Energies <================= 
	----------------------------------------------------------
	 SCS Same-Spin Scale       =       0.3333333333333333 [-]
	 SCS Opposite-Spin Scale   =       1.2000000000000000 [-]
	 SCS Same-Spin Energy      =      -0.0344124792213802 [H]
	 SCS Opposite-Spin Energy  =      -0.3265349797851754 [H]
	 SCS Correlation Energy    =      -0.3609474590065557 [H]
	 SCS Total Energy          =    -257.3364735188125110 [H]
	----------------------------------------------------------


*** tstop() called on cx1-12-6-9.cx1.hpc.ic.ac.uk at Wed Feb  5 14:31:56 2014
Module time:
	user time   =       0.13 seconds =       0.00 minutes
	system time =       0.01 seconds =       0.00 minutes
	total time  =          1 seconds =       0.02 minutes
Total time:
	user time   =       0.32 seconds =       0.01 minutes
	system time =       0.02 seconds =       0.00 minutes
	total time  =          2 seconds =       0.03 minutes
Setting geometry variable R to 2.350000

  No DF_BASIS_SCF auxiliary basis selected, defaulting to cc-pvdz-jkfit


*** tstart() called on cx1-12-6-9.cx1.hpc.ic.ac.uk
*** at Wed Feb  5 14:31:56 2014

	There are an even number of electrons - assuming singlet.
	Specify the multiplicity with the MULTP option in the
	input if this is incorrect


         ---------------------------------------------------------
                                   SCF
            by Justin Turney, Rob Parrish, and Andy Simmonett
                              UHF Reference
                        1 Threads,   2000 MiB Core
         ---------------------------------------------------------

  ==> Geometry <==

    Molecular point group: d2h
    Full point group: D_inf_h

    Geometry (in Angstrom), charge = 0, multiplicity = 1:

       Center              X                  Y                   Z       
    ------------   -----------------  -----------------  -----------------
          NE          0.000000000000     0.000000000000    -1.175000000000
          NE          0.000000000000     0.000000000000     1.175000000000

  Running in d2h symmetry.


	Rotational constants (cm^-1):
	A = **********    B =    0.30537   C =    0.30537

	Rotational constants (MHz):
	A = **********    B = 9154.73257   C = 9154.73257
  Nuclear repulsion =   22.518179088936161

  Charge       = 0
  Multiplicity = 1
  Electrons    = 20
  Nalpha       = 10
  Nbeta        = 10

  ==> Algorithm <==

  SCF Algorithm Type is DF.
  DIIS enabled.
  MOM disabled.
  Fractional occupation disabled.
  Guess Type is CORE.
  Energy threshold   = 1.00e-08
  Density threshold  = 1.00e-08
  Integral threshold = 0.00e+00

  ==> Primary Basis <==

  Basis Set: CC-PVDZ
    Number of shells: 12
    Number of basis function: 28
    Number of Cartesian functions: 30
    Spherical Harmonics?: true
    Max angular momentum: 2

  ==> Pre-Iterations <==

   -------------------------------------------------------
    Irrep   Nso     Nmo     Nalpha   Nbeta   Ndocc  Nsocc
   -------------------------------------------------------
     Ag         7       7       0       0       0       0
     B1g        1       1       0       0       0       0
     B2g        3       3       0       0       0       0
     B3g        3       3       0       0       0       0
     Au         1       1       0       0       0       0
     B1u        7       7       0       0       0       0
     B2u        3       3       0       0       0       0
     B3u        3       3       0       0       0       0
   -------------------------------------------------------
    Total      28      28      10      10      10       0
   -------------------------------------------------------

 OEINTS: Wrapper to libmints.
   by Justin Turney

   Calculation information:
      Number of atoms:                   2
      Number of AO shells:              12
      Number of SO shells:               6
      Number of primitives:             44
      Number of atomic orbitals:        30
      Number of basis functions:        28

      Number of irreps:                  8
      Number of functions per irrep: [   7    1    3    3    1    7    3    3 ]

      Overlap, kinetic, potential, dipole, and quadrupole integrals
        stored in file 35.

  ==> Integral Setup <==

  ==> DFJK: Density-Fitted J/K Matrices <==

    J tasked:                  Yes
    K tasked:                  Yes
    wK tasked:                  No
    OpenMP threads:              1
    Integrals threads:           1
    Memory (MB):              1430
    Algorithm:                Core
    Integral Cache:           NONE
    Schwarz Cutoff:          1E-12
    Fitting Condition:       1E-12

   => Auxiliary Basis Set <=

  Basis Set: cc-pvdz-jkfit
    Number of shells: 48
    Number of basis function: 140
    Number of Cartesian functions: 162
    Spherical Harmonics?: true
    Max angular momentum: 3

  Minimum eigenvalue in the overlap matrix is 1.8922050167E-01.
  Using Symmetric Orthogonalization.
  SCF Guess: Core (One-Electron) Hamiltonian.

  ==> Iterations <==

                           Total Energy        Delta E     RMS |[F,P]|

   @DF-UHF iter   1:  -245.50899953299432   -2.45509e+02   3.95602e-01 
   @DF-UHF iter   2:  -254.74710291690513   -9.23810e+00   2.57675e-01 DIIS
   @DF-UHF iter   3:  -256.97233424463468   -2.22523e+00   1.02801e-02 DIIS
   @DF-UHF iter   4:  -256.97606862219180   -3.73438e-03   1.92651e-03 DIIS
   @DF-UHF iter   5:  -256.97615127657156   -8.26544e-05   3.93567e-04 DIIS
   @DF-UHF iter   6:  -256.97615527600061   -3.99943e-06   1.38115e-05 DIIS
   @DF-UHF iter   7:  -256.97615528023067   -4.23006e-09   4.68652e-07 DIIS
   @DF-UHF iter   8:  -256.97615528024443   -1.37561e-11   7.54240e-08 DIIS
   @DF-UHF iter   9:  -256.97615528024471   -2.84217e-13   1.26634e-08 DIIS
   @DF-UHF iter  10:  -256.97615528024477   -5.68434e-14   2.10366e-09 DIIS

  ==> Post-Iterations <==

   @Spin Contamination Metric:  -1.776356839E-15
   @S^2 Expected:                0.000000000E+00
   @S^2 Observed:               -1.776356839E-15
   @S   Expected:                0.000000000E+00
   @S   Observed:                0.000000000E+00

	Orbital Energies (a.u.)
	-----------------------

	Alpha Occupied:                                                       

	   1B1u  -32.764748     1Ag   -32.764741     2Ag    -1.922203  
	   2B1u   -1.914942     3Ag    -0.852319     1B3u   -0.834991  
	   1B2u   -0.834991     1B3g   -0.828506     1B2g   -0.828506  
	   3B1u   -0.811121  

	Alpha Virtual:                                                        

	   4Ag     1.521282     2B2u    1.661458     2B3u    1.661458  
	   2B3g    1.729467     2B2g    1.729467     4B1u    1.863135  
	   5Ag     2.126259     5B1u    2.278277     1Au     5.197398  
	   6B1u    5.197398     3B2g    5.197407     3B3g    5.197407  
	   1B1g    5.197410     6Ag     5.197410     3B3u    5.197419  
	   3B2u    5.197419     7Ag     5.197972     7B1u    5.198693  

	Beta Occupied:                                                        

	   1B1u  -32.764748     1Ag   -32.764741     2Ag    -1.922203  
	   2B1u   -1.914942     3Ag    -0.852319     1B3u   -0.834991  
	   1B2u   -0.834991     1B3g   -0.828506     1B2g   -0.828506  
	   3B1u   -0.811121  

	Beta Virtual:                                                         

	   4Ag     1.521282     2B2u    1.661458     2B3u    1.661458  
	   2B3g    1.729467     2B2g    1.729467     4B1u    1.863135  
	   5Ag     2.126259     5B1u    2.278277     1Au     5.197398  
	   6B1u    5.197398     3B2g    5.197407     3B3g    5.197407  
	   1B1g    5.197410     6Ag     5.197410     3B3u    5.197419  
	   3B2u    5.197419     7Ag     5.197972     7B1u    5.198693  

	Final Occupation by Irrep:
	         Ag   B1g   B2g   B3g    Au   B1u   B2u   B3u 
	DOCC [     3,    0,    1,    1,    0,    3,    1,    1 ]
	SOCC [     0,    0,    0,    0,    0,    0,    0,    0 ]

  Energy converged.

  @DF-UHF Final Energy:  -256.97615528024477

   => Energetics <=

    Nuclear Repulsion Energy =             22.5181790889361615
    One-Electron Energy =                -410.2745311866790416
    Two-Electron Energy =                 130.7801968174981084
    DFT Exchange-Correlation Energy =       0.0000000000000000
    Empirical Dispersion Energy =           0.0000000000000000
    Total Energy =                       -256.9761552802447682



Properties will be evaluated at   0.000000,   0.000000,   0.000000 Bohr
  ==> Properties <==


Properties computed using the SCF density density matrix
  Nuclear Dipole Moment: (a.u.)
     X:     0.0000      Y:     0.0000      Z:     0.0000

  Electronic Dipole Moment: (a.u.)
     X:     0.0000      Y:     0.0000      Z:     0.0000

  Dipole Moment: (a.u.)
     X:     0.0000      Y:     0.0000      Z:     0.0000     Total:     0.0000

  Dipole Moment: (Debye)
     X:     0.0000      Y:     0.0000      Z:     0.0000     Total:     0.0000


  Saving occupied orbitals to File 180.

*** tstop() called on cx1-12-6-9.cx1.hpc.ic.ac.uk at Wed Feb  5 14:31:57 2014
Module time:
	user time   =       0.18 seconds =       0.00 minutes
	system time =       0.01 seconds =       0.00 minutes
	total time  =          1 seconds =       0.02 minutes
Total time:
	user time   =       0.52 seconds =       0.01 minutes
	system time =       0.03 seconds =       0.00 minutes
	total time  =          3 seconds =       0.05 minutes

  //>>>>>>>>>>>>>>>>>>>>>>>>>>>>>>>>>>>//
  //               DFMP2               //
  //<<<<<<<<<<<<<<<<<<<<<<<<<<<<<<<<<<<//

  No DF_BASIS_MP2 auxiliary basis selected, defaulting to cc-pvdz-ri

*** tstart() called on cx1-12-6-9.cx1.hpc.ic.ac.uk
*** at Wed Feb  5 14:31:57 2014

	 --------------------------------------------------------
	                          DF-MP2                         
	      2nd-Order Density-Fitted Moller-Plesset Theory     
	              UMP2 Wavefunction,   1 Threads             
	                                                         
	        Rob Parrish, Justin Turney, Andy Simmonett,      
	           Ed Hohenstein, and C. David Sherrill          
	 --------------------------------------------------------

	 --------------------------------------------------------
	                 NBF =    28, NAUX =   112
	 --------------------------------------------------------
	   CLASS    FOCC     OCC    AOCC    AVIR     VIR    FVIR
	   ALPHA       0      10      10      18      18       0
	    BETA       0      10      10      18      18       0
	 --------------------------------------------------------

	----------------------------------------------------------
	 ==================> DF-MP2 Energies <=================== 
	----------------------------------------------------------
	 Reference Energy          =    -256.9761552802447682 [H]
	 Singles Energy            =      -0.0000000000000000 [H]
	 Same-Spin Energy          =      -0.1032285438658392 [H]
	 Opposite-Spin Energy      =      -0.2721175962375906 [H]
	 Correlation Energy        =      -0.3753461401034298 [H]
	 Total Energy              =    -257.3515014203481996 [H]
	----------------------------------------------------------
	 ================> DF-SCS-MP2 Energies <================= 
	----------------------------------------------------------
	 SCS Same-Spin Scale       =       0.3333333333333333 [-]
	 SCS Opposite-Spin Scale   =       1.2000000000000000 [-]
	 SCS Same-Spin Energy      =      -0.0344095146219464 [H]
	 SCS Opposite-Spin Energy  =      -0.3265411154851087 [H]
	 SCS Correlation Energy    =      -0.3609506301070551 [H]
	 SCS Total Energy          =    -257.3371059103517950 [H]
	----------------------------------------------------------


*** tstop() called on cx1-12-6-9.cx1.hpc.ic.ac.uk at Wed Feb  5 14:31:57 2014
Module time:
	user time   =       0.14 seconds =       0.00 minutes
	system time =       0.01 seconds =       0.00 minutes
	total time  =          0 seconds =       0.00 minutes
Total time:
	user time   =       0.66 seconds =       0.01 minutes
	system time =       0.04 seconds =       0.00 minutes
	total time  =          3 seconds =       0.05 minutes
Setting geometry variable R to 2.400000

  No DF_BASIS_SCF auxiliary basis selected, defaulting to cc-pvdz-jkfit


*** tstart() called on cx1-12-6-9.cx1.hpc.ic.ac.uk
*** at Wed Feb  5 14:31:57 2014

	There are an even number of electrons - assuming singlet.
	Specify the multiplicity with the MULTP option in the
	input if this is incorrect


         ---------------------------------------------------------
                                   SCF
            by Justin Turney, Rob Parrish, and Andy Simmonett
                              UHF Reference
                        1 Threads,   2000 MiB Core
         ---------------------------------------------------------

  ==> Geometry <==

    Molecular point group: d2h
    Full point group: D_inf_h

    Geometry (in Angstrom), charge = 0, multiplicity = 1:

       Center              X                  Y                   Z       
    ------------   -----------------  -----------------  -----------------
          NE          0.000000000000     0.000000000000    -1.200000000000
          NE          0.000000000000     0.000000000000     1.200000000000

  Running in d2h symmetry.


	Rotational constants (cm^-1):
	A = **********    B =    0.29278   C =    0.29278

	Rotational constants (MHz):
	A = **********    B = 8777.25879   C = 8777.25879
  Nuclear repulsion =   22.049050357916677

  Charge       = 0
  Multiplicity = 1
  Electrons    = 20
  Nalpha       = 10
  Nbeta        = 10

  ==> Algorithm <==

  SCF Algorithm Type is DF.
  DIIS enabled.
  MOM disabled.
  Fractional occupation disabled.
  Guess Type is CORE.
  Energy threshold   = 1.00e-08
  Density threshold  = 1.00e-08
  Integral threshold = 0.00e+00

  ==> Primary Basis <==

  Basis Set: CC-PVDZ
    Number of shells: 12
    Number of basis function: 28
    Number of Cartesian functions: 30
    Spherical Harmonics?: true
    Max angular momentum: 2

  ==> Pre-Iterations <==

   -------------------------------------------------------
    Irrep   Nso     Nmo     Nalpha   Nbeta   Ndocc  Nsocc
   -------------------------------------------------------
     Ag         7       7       0       0       0       0
     B1g        1       1       0       0       0       0
     B2g        3       3       0       0       0       0
     B3g        3       3       0       0       0       0
     Au         1       1       0       0       0       0
     B1u        7       7       0       0       0       0
     B2u        3       3       0       0       0       0
     B3u        3       3       0       0       0       0
   -------------------------------------------------------
    Total      28      28      10      10      10       0
   -------------------------------------------------------

 OEINTS: Wrapper to libmints.
   by Justin Turney

   Calculation information:
      Number of atoms:                   2
      Number of AO shells:              12
      Number of SO shells:               6
      Number of primitives:             44
      Number of atomic orbitals:        30
      Number of basis functions:        28

      Number of irreps:                  8
      Number of functions per irrep: [   7    1    3    3    1    7    3    3 ]

      Overlap, kinetic, potential, dipole, and quadrupole integrals
        stored in file 35.

  ==> Integral Setup <==

  ==> DFJK: Density-Fitted J/K Matrices <==

    J tasked:                  Yes
    K tasked:                  Yes
    wK tasked:                  No
    OpenMP threads:              1
    Integrals threads:           1
    Memory (MB):              1430
    Algorithm:                Core
    Integral Cache:           NONE
    Schwarz Cutoff:          1E-12
    Fitting Condition:       1E-12

   => Auxiliary Basis Set <=

  Basis Set: cc-pvdz-jkfit
    Number of shells: 48
    Number of basis function: 140
    Number of Cartesian functions: 162
    Spherical Harmonics?: true
    Max angular momentum: 3

  Minimum eigenvalue in the overlap matrix is 1.9003779355E-01.
  Using Symmetric Orthogonalization.
  SCF Guess: Core (One-Electron) Hamiltonian.

  ==> Iterations <==

                           Total Energy        Delta E     RMS |[F,P]|

   @DF-UHF iter   1:  -245.51364952802774   -2.45514e+02   3.95214e-01 
   @DF-UHF iter   2:  -254.74434563583762   -9.23070e+00   2.57847e-01 DIIS
   @DF-UHF iter   3:  -256.97278822920418   -2.22844e+00   1.03083e-02 DIIS
   @DF-UHF iter   4:  -256.97653896995894   -3.75074e-03   1.94716e-03 DIIS
   @DF-UHF iter   5:  -256.97662336984757   -8.43999e-05   3.99695e-04 DIIS
   @DF-UHF iter   6:  -256.97662749035214   -4.12050e-06   1.34734e-05 DIIS
   @DF-UHF iter   7:  -256.97662749435608   -4.00394e-09   4.28610e-07 DIIS
   @DF-UHF iter   8:  -256.97662749436722   -1.11413e-11   7.20985e-08 DIIS
   @DF-UHF iter   9:  -256.97662749436734   -1.13687e-13   1.19469e-08 DIIS
   @DF-UHF iter  10:  -256.97662749436734    0.00000e+00   2.09174e-09 DIIS

  ==> Post-Iterations <==

   @Spin Contamination Metric:  -1.243449788E-14
   @S^2 Expected:                0.000000000E+00
   @S^2 Observed:               -1.243449788E-14
   @S   Expected:                0.000000000E+00
   @S   Observed:                0.000000000E+00

	Orbital Energies (a.u.)
	-----------------------

	Alpha Occupied:                                                       

	   1B1u  -32.765023     1Ag   -32.765017     2Ag    -1.921695  
	   2B1u   -1.915608     3Ag    -0.850082     1B3u   -0.834643  
	   1B2u   -0.834643     1B2g   -0.829093     1B3g   -0.829093  
	   3B1u   -0.813564  

	Alpha Virtual:                                                        

	   4Ag     1.531131     2B3u    1.665611     2B2u    1.665611  
	   2B2g    1.724851     2B3g    1.724851     4B1u    1.855276  
	   5Ag     2.129838     5B1u    2.255972     1Au     5.197294  
	   6B1u    5.197294     3B3g    5.197299     3B2g    5.197299  
	   1B1g    5.197304     6Ag     5.197304     3B2u    5.197316  
	   3B3u    5.197316     7Ag     5.197681     7B1u    5.198137  

	Beta Occupied:                                                        

	   1B1u  -32.765023     1Ag   -32.765017     2Ag    -1.921695  
	   2B1u   -1.915608     3Ag    -0.850082     1B3u   -0.834643  
	   1B2u   -0.834643     1B2g   -0.829093     1B3g   -0.829093  
	   3B1u   -0.813564  

	Beta Virtual:                                                         

	   4Ag     1.531131     2B3u    1.665611     2B2u    1.665611  
	   2B2g    1.724851     2B3g    1.724851     4B1u    1.855276  
	   5Ag     2.129838     5B1u    2.255972     1Au     5.197294  
	   6B1u    5.197294     3B3g    5.197299     3B2g    5.197299  
	   1B1g    5.197304     6Ag     5.197304     3B2u    5.197316  
	   3B3u    5.197316     7Ag     5.197681     7B1u    5.198137  

	Final Occupation by Irrep:
	         Ag   B1g   B2g   B3g    Au   B1u   B2u   B3u 
	DOCC [     3,    0,    1,    1,    0,    3,    1,    1 ]
	SOCC [     0,    0,    0,    0,    0,    0,    0,    0 ]

  Energy converged.

  @DF-UHF Final Energy:  -256.97662749436734

   => Energetics <=

    Nuclear Repulsion Energy =             22.0490503579166770
    One-Electron Energy =                -409.3344336085059467
    Two-Electron Energy =                 130.3087557562219558
    DFT Exchange-Correlation Energy =       0.0000000000000000
    Empirical Dispersion Energy =           0.0000000000000000
    Total Energy =                       -256.9766274943673352



Properties will be evaluated at   0.000000,   0.000000,   0.000000 Bohr
  ==> Properties <==


Properties computed using the SCF density density matrix
  Nuclear Dipole Moment: (a.u.)
     X:     0.0000      Y:     0.0000      Z:     0.0000

  Electronic Dipole Moment: (a.u.)
     X:     0.0000      Y:     0.0000      Z:     0.0000

  Dipole Moment: (a.u.)
     X:     0.0000      Y:     0.0000      Z:     0.0000     Total:     0.0000

  Dipole Moment: (Debye)
     X:     0.0000      Y:     0.0000      Z:     0.0000     Total:     0.0000


  Saving occupied orbitals to File 180.

*** tstop() called on cx1-12-6-9.cx1.hpc.ic.ac.uk at Wed Feb  5 14:31:58 2014
Module time:
	user time   =       0.19 seconds =       0.00 minutes
	system time =       0.01 seconds =       0.00 minutes
	total time  =          1 seconds =       0.02 minutes
Total time:
	user time   =       0.86 seconds =       0.01 minutes
	system time =       0.05 seconds =       0.00 minutes
	total time  =          4 seconds =       0.07 minutes

  //>>>>>>>>>>>>>>>>>>>>>>>>>>>>>>>>>>>//
  //               DFMP2               //
  //<<<<<<<<<<<<<<<<<<<<<<<<<<<<<<<<<<<//

  No DF_BASIS_MP2 auxiliary basis selected, defaulting to cc-pvdz-ri

*** tstart() called on cx1-12-6-9.cx1.hpc.ic.ac.uk
*** at Wed Feb  5 14:31:58 2014

	 --------------------------------------------------------
	                          DF-MP2                         
	      2nd-Order Density-Fitted Moller-Plesset Theory     
	              UMP2 Wavefunction,   1 Threads             
	                                                         
	        Rob Parrish, Justin Turney, Andy Simmonett,      
	           Ed Hohenstein, and C. David Sherrill          
	 --------------------------------------------------------

	 --------------------------------------------------------
	                 NBF =    28, NAUX =   112
	 --------------------------------------------------------
	   CLASS    FOCC     OCC    AOCC    AVIR     VIR    FVIR
	   ALPHA       0      10      10      18      18       0
	    BETA       0      10      10      18      18       0
	 --------------------------------------------------------

	----------------------------------------------------------
	 ==================> DF-MP2 Energies <=================== 
	----------------------------------------------------------
	 Reference Energy          =    -256.9766274943673352 [H]
	 Singles Energy            =      -0.0000000000000000 [H]
	 Same-Spin Energy          =      -0.1032189240979359 [H]
	 Opposite-Spin Energy      =      -0.2721168014101339 [H]
	 Correlation Energy        =      -0.3753357255080698 [H]
	 Total Energy              =    -257.3519632198754152 [H]
	----------------------------------------------------------
	 ================> DF-SCS-MP2 Energies <================= 
	----------------------------------------------------------
	 SCS Same-Spin Scale       =       0.3333333333333333 [-]
	 SCS Opposite-Spin Scale   =       1.2000000000000000 [-]
	 SCS Same-Spin Energy      =      -0.0344063080326453 [H]
	 SCS Opposite-Spin Energy  =      -0.3265401616921607 [H]
	 SCS Correlation Energy    =      -0.3609464697248060 [H]
	 SCS Total Energy          =    -257.3375739640921438 [H]
	----------------------------------------------------------


*** tstop() called on cx1-12-6-9.cx1.hpc.ic.ac.uk at Wed Feb  5 14:31:59 2014
Module time:
	user time   =       0.13 seconds =       0.00 minutes
	system time =       0.00 seconds =       0.00 minutes
	total time  =          1 seconds =       0.02 minutes
Total time:
	user time   =       0.99 seconds =       0.02 minutes
	system time =       0.05 seconds =       0.00 minutes
	total time  =          5 seconds =       0.08 minutes
Setting geometry variable R to 2.450000

  No DF_BASIS_SCF auxiliary basis selected, defaulting to cc-pvdz-jkfit


*** tstart() called on cx1-12-6-9.cx1.hpc.ic.ac.uk
*** at Wed Feb  5 14:31:59 2014

	There are an even number of electrons - assuming singlet.
	Specify the multiplicity with the MULTP option in the
	input if this is incorrect


         ---------------------------------------------------------
                                   SCF
            by Justin Turney, Rob Parrish, and Andy Simmonett
                              UHF Reference
                        1 Threads,   2000 MiB Core
         ---------------------------------------------------------

  ==> Geometry <==

    Molecular point group: d2h
    Full point group: D_inf_h

    Geometry (in Angstrom), charge = 0, multiplicity = 1:

       Center              X                  Y                   Z       
    ------------   -----------------  -----------------  -----------------
          NE          0.000000000000     0.000000000000    -1.225000000000
          NE          0.000000000000     0.000000000000     1.225000000000

  Running in d2h symmetry.


	Rotational constants (cm^-1):
	A = **********    B =    0.28095   C =    0.28095

	Rotational constants (MHz):
	A = **********    B = 8422.65899   C = 8422.65899
  Nuclear repulsion =   21.599069738367344

  Charge       = 0
  Multiplicity = 1
  Electrons    = 20
  Nalpha       = 10
  Nbeta        = 10

  ==> Algorithm <==

  SCF Algorithm Type is DF.
  DIIS enabled.
  MOM disabled.
  Fractional occupation disabled.
  Guess Type is CORE.
  Energy threshold   = 1.00e-08
  Density threshold  = 1.00e-08
  Integral threshold = 0.00e+00

  ==> Primary Basis <==

  Basis Set: CC-PVDZ
    Number of shells: 12
    Number of basis function: 28
    Number of Cartesian functions: 30
    Spherical Harmonics?: true
    Max angular momentum: 2

  ==> Pre-Iterations <==

   -------------------------------------------------------
    Irrep   Nso     Nmo     Nalpha   Nbeta   Ndocc  Nsocc
   -------------------------------------------------------
     Ag         7       7       0       0       0       0
     B1g        1       1       0       0       0       0
     B2g        3       3       0       0       0       0
     B3g        3       3       0       0       0       0
     Au         1       1       0       0       0       0
     B1u        7       7       0       0       0       0
     B2u        3       3       0       0       0       0
     B3u        3       3       0       0       0       0
   -------------------------------------------------------
    Total      28      28      10      10      10       0
   -------------------------------------------------------

 OEINTS: Wrapper to libmints.
   by Justin Turney

   Calculation information:
      Number of atoms:                   2
      Number of AO shells:              12
      Number of SO shells:               6
      Number of primitives:             44
      Number of atomic orbitals:        30
      Number of basis functions:        28

      Number of irreps:                  8
      Number of functions per irrep: [   7    1    3    3    1    7    3    3 ]

      Overlap, kinetic, potential, dipole, and quadrupole integrals
        stored in file 35.

  ==> Integral Setup <==

  ==> DFJK: Density-Fitted J/K Matrices <==

    J tasked:                  Yes
    K tasked:                  Yes
    wK tasked:                  No
    OpenMP threads:              1
    Integrals threads:           1
    Memory (MB):              1430
    Algorithm:                Core
    Integral Cache:           NONE
    Schwarz Cutoff:          1E-12
    Fitting Condition:       1E-12

   => Auxiliary Basis Set <=

  Basis Set: cc-pvdz-jkfit
    Number of shells: 48
    Number of basis function: 140
    Number of Cartesian functions: 162
    Spherical Harmonics?: true
    Max angular momentum: 3

  Minimum eigenvalue in the overlap matrix is 1.9069865841E-01.
  Using Symmetric Orthogonalization.
  SCF Guess: Core (One-Electron) Hamiltonian.

  ==> Iterations <==

                           Total Energy        Delta E     RMS |[F,P]|

   @DF-UHF iter   1:  -245.51763459671611   -2.45518e+02   3.94883e-01 
   @DF-UHF iter   2:  -254.74219743743930   -9.22456e+00   2.57985e-01 DIIS
   @DF-UHF iter   3:  -256.97312063194181   -2.23092e+00   1.03329e-02 DIIS
   @DF-UHF iter   4:  -256.97688520651582   -3.76457e-03   1.96622e-03 DIIS
   @DF-UHF iter   5:  -256.97697123988053   -8.60334e-05   4.05588e-04 DIIS
   @DF-UHF iter   6:  -256.97697547818433   -4.23830e-06   1.30829e-05 DIIS
   @DF-UHF iter   7:  -256.97697548193929   -3.75496e-09   4.01344e-07 DIIS
   @DF-UHF iter   8:  -256.97697548194850   -9.20863e-12   6.97023e-08 DIIS
   @DF-UHF iter   9:  -256.97697548194884   -3.41061e-13   1.12478e-08 DIIS
   @DF-UHF iter  10:  -256.97697548194884    0.00000e+00   2.06730e-09 DIIS

  ==> Post-Iterations <==

   @Spin Contamination Metric:  -1.776356839E-15
   @S^2 Expected:                0.000000000E+00
   @S^2 Observed:               -1.776356839E-15
   @S   Expected:                0.000000000E+00
   @S   Observed:                0.000000000E+00

	Orbital Energies (a.u.)
	-----------------------

	Alpha Occupied:                                                       

	   1B1u  -32.765233     1Ag   -32.765227     2Ag    -1.921261  
	   2B1u   -1.916166     3Ag    -0.848076     1B3u   -0.834331  
	   1B2u   -0.834331     1B2g   -0.829588     1B3g   -0.829588  
	   3B1u   -0.815735  

	Alpha Virtual:                                                        

	   4Ag     1.542032     2B3u    1.669397     2B2u    1.669397  
	   2B3g    1.720714     2B2g    1.720714     4B1u    1.846002  
	   5Ag     2.133203     5B1u    2.237163     1Au     5.197216  
	   6B1u    5.197216     3B2g    5.197218     3B3g    5.197218  
	   1B1g    5.197224     6Ag     5.197224     3B3u    5.197237  
	   3B2u    5.197237     7Ag     5.197472     7B1u    5.197760  

	Beta Occupied:                                                        

	   1B1u  -32.765233     1Ag   -32.765227     2Ag    -1.921261  
	   2B1u   -1.916166     3Ag    -0.848076     1B3u   -0.834331  
	   1B2u   -0.834331     1B2g   -0.829588     1B3g   -0.829588  
	   3B1u   -0.815735  

	Beta Virtual:                                                         

	   4Ag     1.542032     2B3u    1.669397     2B2u    1.669397  
	   2B3g    1.720714     2B2g    1.720714     4B1u    1.846002  
	   5Ag     2.133203     5B1u    2.237163     1Au     5.197216  
	   6B1u    5.197216     3B2g    5.197218     3B3g    5.197218  
	   1B1g    5.197224     6Ag     5.197224     3B3u    5.197237  
	   3B2u    5.197237     7Ag     5.197472     7B1u    5.197760  

	Final Occupation by Irrep:
	         Ag   B1g   B2g   B3g    Au   B1u   B2u   B3u 
	DOCC [     3,    0,    1,    1,    0,    3,    1,    1 ]
	SOCC [     0,    0,    0,    0,    0,    0,    0,    0 ]

  Energy converged.

  @DF-UHF Final Energy:  -256.97697548194884

   => Energetics <=

    Nuclear Repulsion Energy =             21.5990697383673442
    One-Electron Energy =                -408.4330184608498939
    Two-Electron Energy =                 129.8569732405337049
    DFT Exchange-Correlation Energy =       0.0000000000000000
    Empirical Dispersion Energy =           0.0000000000000000
    Total Energy =                       -256.9769754819488412



Properties will be evaluated at   0.000000,   0.000000,   0.000000 Bohr
  ==> Properties <==


Properties computed using the SCF density density matrix
  Nuclear Dipole Moment: (a.u.)
     X:     0.0000      Y:     0.0000      Z:     0.0000

  Electronic Dipole Moment: (a.u.)
     X:     0.0000      Y:     0.0000      Z:     0.0000

  Dipole Moment: (a.u.)
     X:     0.0000      Y:     0.0000      Z:     0.0000     Total:     0.0000

  Dipole Moment: (Debye)
     X:     0.0000      Y:     0.0000      Z:     0.0000     Total:     0.0000


  Saving occupied orbitals to File 180.

*** tstop() called on cx1-12-6-9.cx1.hpc.ic.ac.uk at Wed Feb  5 14:32:00 2014
Module time:
	user time   =       0.18 seconds =       0.00 minutes
	system time =       0.02 seconds =       0.00 minutes
	total time  =          1 seconds =       0.02 minutes
Total time:
	user time   =       1.19 seconds =       0.02 minutes
	system time =       0.07 seconds =       0.00 minutes
	total time  =          6 seconds =       0.10 minutes

  //>>>>>>>>>>>>>>>>>>>>>>>>>>>>>>>>>>>//
  //               DFMP2               //
  //<<<<<<<<<<<<<<<<<<<<<<<<<<<<<<<<<<<//

  No DF_BASIS_MP2 auxiliary basis selected, defaulting to cc-pvdz-ri

*** tstart() called on cx1-12-6-9.cx1.hpc.ic.ac.uk
*** at Wed Feb  5 14:32:00 2014

	 --------------------------------------------------------
	                          DF-MP2                         
	      2nd-Order Density-Fitted Moller-Plesset Theory     
	              UMP2 Wavefunction,   1 Threads             
	                                                         
	        Rob Parrish, Justin Turney, Andy Simmonett,      
	           Ed Hohenstein, and C. David Sherrill          
	 --------------------------------------------------------

	 --------------------------------------------------------
	                 NBF =    28, NAUX =   112
	 --------------------------------------------------------
	   CLASS    FOCC     OCC    AOCC    AVIR     VIR    FVIR
	   ALPHA       0      10      10      18      18       0
	    BETA       0      10      10      18      18       0
	 --------------------------------------------------------

	----------------------------------------------------------
	 ==================> DF-MP2 Energies <=================== 
	----------------------------------------------------------
	 Reference Energy          =    -256.9769754819488412 [H]
	 Singles Energy            =      -0.0000000000000000 [H]
	 Same-Spin Energy          =      -0.1032089200554684 [H]
	 Opposite-Spin Energy      =      -0.2721116543357786 [H]
	 Correlation Energy        =      -0.3753205743912469 [H]
	 Total Energy              =    -257.3522960563400943 [H]
	----------------------------------------------------------
	 ================> DF-SCS-MP2 Energies <================= 
	----------------------------------------------------------
	 SCS Same-Spin Scale       =       0.3333333333333333 [-]
	 SCS Opposite-Spin Scale   =       1.2000000000000000 [-]
	 SCS Same-Spin Energy      =      -0.0344029733518228 [H]
	 SCS Opposite-Spin Energy  =      -0.3265339852029343 [H]
	 SCS Correlation Energy    =      -0.3609369585547570 [H]
	 SCS Total Energy          =    -257.3379124405036009 [H]
	----------------------------------------------------------


*** tstop() called on cx1-12-6-9.cx1.hpc.ic.ac.uk at Wed Feb  5 14:32:00 2014
Module time:
	user time   =       0.14 seconds =       0.00 minutes
	system time =       0.00 seconds =       0.00 minutes
	total time  =          0 seconds =       0.00 minutes
Total time:
	user time   =       1.33 seconds =       0.02 minutes
	system time =       0.07 seconds =       0.00 minutes
	total time  =          6 seconds =       0.10 minutes
Setting geometry variable R to 2.500000

  No DF_BASIS_SCF auxiliary basis selected, defaulting to cc-pvdz-jkfit


*** tstart() called on cx1-12-6-9.cx1.hpc.ic.ac.uk
*** at Wed Feb  5 14:32:00 2014

	There are an even number of electrons - assuming singlet.
	Specify the multiplicity with the MULTP option in the
	input if this is incorrect


         ---------------------------------------------------------
                                   SCF
            by Justin Turney, Rob Parrish, and Andy Simmonett
                              UHF Reference
                        1 Threads,   2000 MiB Core
         ---------------------------------------------------------

  ==> Geometry <==

    Molecular point group: d2h
    Full point group: D_inf_h

    Geometry (in Angstrom), charge = 0, multiplicity = 1:

       Center              X                  Y                   Z       
    ------------   -----------------  -----------------  -----------------
          NE          0.000000000000     0.000000000000    -1.250000000000
          NE          0.000000000000     0.000000000000     1.250000000000

  Running in d2h symmetry.


	Rotational constants (cm^-1):
	A = **********    B =    0.26982   C =    0.26982

	Rotational constants (MHz):
	A = **********    B = 8089.12170   C = 8089.12170
  Nuclear repulsion =   21.167088343600014

  Charge       = 0
  Multiplicity = 1
  Electrons    = 20
  Nalpha       = 10
  Nbeta        = 10

  ==> Algorithm <==

  SCF Algorithm Type is DF.
  DIIS enabled.
  MOM disabled.
  Fractional occupation disabled.
  Guess Type is CORE.
  Energy threshold   = 1.00e-08
  Density threshold  = 1.00e-08
  Integral threshold = 0.00e+00

  ==> Primary Basis <==

  Basis Set: CC-PVDZ
    Number of shells: 12
    Number of basis function: 28
    Number of Cartesian functions: 30
    Spherical Harmonics?: true
    Max angular momentum: 2

  ==> Pre-Iterations <==

   -------------------------------------------------------
    Irrep   Nso     Nmo     Nalpha   Nbeta   Ndocc  Nsocc
   -------------------------------------------------------
     Ag         7       7       0       0       0       0
     B1g        1       1       0       0       0       0
     B2g        3       3       0       0       0       0
     B3g        3       3       0       0       0       0
     Au         1       1       0       0       0       0
     B1u        7       7       0       0       0       0
     B2u        3       3       0       0       0       0
     B3u        3       3       0       0       0       0
   -------------------------------------------------------
    Total      28      28      10      10      10       0
   -------------------------------------------------------

 OEINTS: Wrapper to libmints.
   by Justin Turney

   Calculation information:
      Number of atoms:                   2
      Number of AO shells:              12
      Number of SO shells:               6
      Number of primitives:             44
      Number of atomic orbitals:        30
      Number of basis functions:        28

      Number of irreps:                  8
      Number of functions per irrep: [   7    1    3    3    1    7    3    3 ]

      Overlap, kinetic, potential, dipole, and quadrupole integrals
        stored in file 35.

  ==> Integral Setup <==

  ==> DFJK: Density-Fitted J/K Matrices <==

    J tasked:                  Yes
    K tasked:                  Yes
    wK tasked:                  No
    OpenMP threads:              1
    Integrals threads:           1
    Memory (MB):              1430
    Algorithm:                Core
    Integral Cache:           NONE
    Schwarz Cutoff:          1E-12
    Fitting Condition:       1E-12

   => Auxiliary Basis Set <=

  Basis Set: cc-pvdz-jkfit
    Number of shells: 48
    Number of basis function: 140
    Number of Cartesian functions: 162
    Spherical Harmonics?: true
    Max angular momentum: 3

  Minimum eigenvalue in the overlap matrix is 1.9123154179E-01.
  Using Symmetric Orthogonalization.
  SCF Guess: Core (One-Electron) Hamiltonian.

  ==> Iterations <==

                           Total Energy        Delta E     RMS |[F,P]|

   @DF-UHF iter   1:  -245.52103024082601   -2.45521e+02   3.94602e-01 
   @DF-UHF iter   2:  -254.74054865518730   -9.21952e+00   2.58094e-01 DIIS
   @DF-UHF iter   3:  -256.97335800332183   -2.23281e+00   1.03544e-02 DIIS
   @DF-UHF iter   4:  -256.97713426100336   -3.77626e-03   1.98378e-03 DIIS
   @DF-UHF iter   5:  -256.97722181622049   -8.75552e-05   4.11249e-04 DIIS
   @DF-UHF iter   6:  -256.97722616895987   -4.35274e-06   1.26519e-05 DIIS
   @DF-UHF iter   7:  -256.97722617245137   -3.49149e-09   3.83488e-07 DIIS
   @DF-UHF iter   8:  -256.97722617245932   -7.95808e-12   6.82694e-08 DIIS
   @DF-UHF iter   9:  -256.97722617245944   -1.13687e-13   1.06093e-08 DIIS
   @DF-UHF iter  10:  -256.97722617245950   -5.68434e-14   2.03275e-09 DIIS

  ==> Post-Iterations <==

   @Spin Contamination Metric:  -1.598721155E-14
   @S^2 Expected:                0.000000000E+00
   @S^2 Observed:               -1.598721155E-14
   @S   Expected:                0.000000000E+00
   @S   Observed:                0.000000000E+00

	Orbital Energies (a.u.)
	-----------------------

	Alpha Occupied:                                                       

	   1B1u  -32.765389     1Ag   -32.765385     2Ag    -1.920888  
	   2B1u   -1.916633     3Ag    -0.846277     1B3u   -0.834050  
	   1B2u   -0.834050     1B2g   -0.830004     1B3g   -0.830004  
	   3B1u   -0.817663  

	Alpha Virtual:                                                        

	   4Ag     1.553596     2B3u    1.672817     2B2u    1.672817  
	   2B2g    1.717032     2B3g    1.717032     4B1u    1.835636  
	   5Ag     2.136345     5B1u    2.221561     6B1u    5.197160  
	   1Au     5.197160     3B2g    5.197160     3B3g    5.197160  
	   6Ag     5.197166     1B1g    5.197166     3B3u    5.197179  
	   3B2u    5.197179     7Ag     5.197326     7B1u    5.197509  

	Beta Occupied:                                                        

	   1B1u  -32.765389     1Ag   -32.765385     2Ag    -1.920888  
	   2B1u   -1.916633     3Ag    -0.846277     1B3u   -0.834050  
	   1B2u   -0.834050     1B2g   -0.830004     1B3g   -0.830004  
	   3B1u   -0.817663  

	Beta Virtual:                                                         

	   4Ag     1.553596     2B3u    1.672817     2B2u    1.672817  
	   2B2g    1.717032     2B3g    1.717032     4B1u    1.835636  
	   5Ag     2.136345     5B1u    2.221561     6B1u    5.197160  
	   1Au     5.197160     3B2g    5.197160     3B3g    5.197160  
	   6Ag     5.197166     1B1g    5.197166     3B3u    5.197179  
	   3B2u    5.197179     7Ag     5.197326     7B1u    5.197509  

	Final Occupation by Irrep:
	         Ag   B1g   B2g   B3g    Au   B1u   B2u   B3u 
	DOCC [     3,    0,    1,    1,    0,    3,    1,    1 ]
	SOCC [     0,    0,    0,    0,    0,    0,    0,    0 ]

  Energy converged.

  @DF-UHF Final Energy:  -256.97722617245950

   => Energetics <=

    Nuclear Repulsion Energy =             21.1670883436000139
    One-Electron Energy =                -407.5679453241112355
    Two-Electron Energy =                 129.4236308080517119
    DFT Exchange-Correlation Energy =       0.0000000000000000
    Empirical Dispersion Energy =           0.0000000000000000
    Total Energy =                       -256.9772261724594955



Properties will be evaluated at   0.000000,   0.000000,   0.000000 Bohr
  ==> Properties <==


Properties computed using the SCF density density matrix
  Nuclear Dipole Moment: (a.u.)
     X:     0.0000      Y:     0.0000      Z:     0.0000

  Electronic Dipole Moment: (a.u.)
     X:     0.0000      Y:     0.0000      Z:     0.0000

  Dipole Moment: (a.u.)
     X:     0.0000      Y:     0.0000      Z:     0.0000     Total:     0.0000

  Dipole Moment: (Debye)
     X:     0.0000      Y:     0.0000      Z:     0.0000     Total:     0.0000


  Saving occupied orbitals to File 180.

*** tstop() called on cx1-12-6-9.cx1.hpc.ic.ac.uk at Wed Feb  5 14:32:01 2014
Module time:
	user time   =       0.19 seconds =       0.00 minutes
	system time =       0.01 seconds =       0.00 minutes
	total time  =          1 seconds =       0.02 minutes
Total time:
	user time   =       1.53 seconds =       0.03 minutes
	system time =       0.08 seconds =       0.00 minutes
	total time  =          7 seconds =       0.12 minutes

  //>>>>>>>>>>>>>>>>>>>>>>>>>>>>>>>>>>>//
  //               DFMP2               //
  //<<<<<<<<<<<<<<<<<<<<<<<<<<<<<<<<<<<//

  No DF_BASIS_MP2 auxiliary basis selected, defaulting to cc-pvdz-ri

*** tstart() called on cx1-12-6-9.cx1.hpc.ic.ac.uk
*** at Wed Feb  5 14:32:01 2014

	 --------------------------------------------------------
	                          DF-MP2                         
	      2nd-Order Density-Fitted Moller-Plesset Theory     
	              UMP2 Wavefunction,   1 Threads             
	                                                         
	        Rob Parrish, Justin Turney, Andy Simmonett,      
	           Ed Hohenstein, and C. David Sherrill          
	 --------------------------------------------------------

	 --------------------------------------------------------
	                 NBF =    28, NAUX =   112
	 --------------------------------------------------------
	   CLASS    FOCC     OCC    AOCC    AVIR     VIR    FVIR
	   ALPHA       0      10      10      18      18       0
	    BETA       0      10      10      18      18       0
	 --------------------------------------------------------

	----------------------------------------------------------
	 ==================> DF-MP2 Energies <=================== 
	----------------------------------------------------------
	 Reference Energy          =    -256.9772261724594955 [H]
	 Singles Energy            =      -0.0000000000000000 [H]
	 Same-Spin Energy          =      -0.1031988699801453 [H]
	 Opposite-Spin Energy      =      -0.2721035488243300 [H]
	 Correlation Energy        =      -0.3753024188044752 [H]
	 Total Energy              =    -257.3525285912639902 [H]
	----------------------------------------------------------
	 ================> DF-SCS-MP2 Energies <================= 
	----------------------------------------------------------
	 SCS Same-Spin Scale       =       0.3333333333333333 [-]
	 SCS Opposite-Spin Scale   =       1.2000000000000000 [-]
	 SCS Same-Spin Energy      =      -0.0343996233267151 [H]
	 SCS Opposite-Spin Energy  =      -0.3265242585891959 [H]
	 SCS Correlation Energy    =      -0.3609238819159110 [H]
	 SCS Total Energy          =    -257.3381500543754328 [H]
	----------------------------------------------------------


*** tstop() called on cx1-12-6-9.cx1.hpc.ic.ac.uk at Wed Feb  5 14:32:01 2014
Module time:
	user time   =       0.14 seconds =       0.00 minutes
	system time =       0.00 seconds =       0.00 minutes
	total time  =          0 seconds =       0.00 minutes
Total time:
	user time   =       1.67 seconds =       0.03 minutes
	system time =       0.08 seconds =       0.00 minutes
	total time  =          7 seconds =       0.12 minutes
Setting geometry variable R to 2.550000

  No DF_BASIS_SCF auxiliary basis selected, defaulting to cc-pvdz-jkfit


*** tstart() called on cx1-12-6-9.cx1.hpc.ic.ac.uk
*** at Wed Feb  5 14:32:01 2014

	There are an even number of electrons - assuming singlet.
	Specify the multiplicity with the MULTP option in the
	input if this is incorrect


         ---------------------------------------------------------
                                   SCF
            by Justin Turney, Rob Parrish, and Andy Simmonett
                              UHF Reference
                        1 Threads,   2000 MiB Core
         ---------------------------------------------------------

  ==> Geometry <==

    Molecular point group: d2h
    Full point group: D_inf_h

    Geometry (in Angstrom), charge = 0, multiplicity = 1:

       Center              X                  Y                   Z       
    ------------   -----------------  -----------------  -----------------
          NE          0.000000000000     0.000000000000    -1.275000000000
          NE          0.000000000000     0.000000000000     1.275000000000

  Running in d2h symmetry.


	Rotational constants (cm^-1):
	A = **********    B =    0.25935   C =    0.25935

	Rotational constants (MHz):
	A = **********    B = 7775.01124   C = 7775.01124
  Nuclear repulsion =   20.752047395686276

  Charge       = 0
  Multiplicity = 1
  Electrons    = 20
  Nalpha       = 10
  Nbeta        = 10

  ==> Algorithm <==

  SCF Algorithm Type is DF.
  DIIS enabled.
  MOM disabled.
  Fractional occupation disabled.
  Guess Type is CORE.
  Energy threshold   = 1.00e-08
  Density threshold  = 1.00e-08
  Integral threshold = 0.00e+00

  ==> Primary Basis <==

  Basis Set: CC-PVDZ
    Number of shells: 12
    Number of basis function: 28
    Number of Cartesian functions: 30
    Spherical Harmonics?: true
    Max angular momentum: 2

  ==> Pre-Iterations <==

   -------------------------------------------------------
    Irrep   Nso     Nmo     Nalpha   Nbeta   Ndocc  Nsocc
   -------------------------------------------------------
     Ag         7       7       0       0       0       0
     B1g        1       1       0       0       0       0
     B2g        3       3       0       0       0       0
     B3g        3       3       0       0       0       0
     Au         1       1       0       0       0       0
     B1u        7       7       0       0       0       0
     B2u        3       3       0       0       0       0
     B3u        3       3       0       0       0       0
   -------------------------------------------------------
    Total      28      28      10      10      10       0
   -------------------------------------------------------

 OEINTS: Wrapper to libmints.
   by Justin Turney

   Calculation information:
      Number of atoms:                   2
      Number of AO shells:              12
      Number of SO shells:               6
      Number of primitives:             44
      Number of atomic orbitals:        30
      Number of basis functions:        28

      Number of irreps:                  8
      Number of functions per irrep: [   7    1    3    3    1    7    3    3 ]

      Overlap, kinetic, potential, dipole, and quadrupole integrals
        stored in file 35.

  ==> Integral Setup <==

  ==> DFJK: Density-Fitted J/K Matrices <==

    J tasked:                  Yes
    K tasked:                  Yes
    wK tasked:                  No
    OpenMP threads:              1
    Integrals threads:           1
    Memory (MB):              1430
    Algorithm:                Core
    Integral Cache:           NONE
    Schwarz Cutoff:          1E-12
    Fitting Condition:       1E-12

   => Auxiliary Basis Set <=

  Basis Set: cc-pvdz-jkfit
    Number of shells: 48
    Number of basis function: 140
    Number of Cartesian functions: 162
    Spherical Harmonics?: true
    Max angular momentum: 3

  Minimum eigenvalue in the overlap matrix is 1.9166007439E-01.
  Using Symmetric Orthogonalization.
  SCF Guess: Core (One-Electron) Hamiltonian.

  ==> Iterations <==

                           Total Energy        Delta E     RMS |[F,P]|

   @DF-UHF iter   1:  -245.52391214846890   -2.45524e+02   3.94364e-01 
   @DF-UHF iter   2:  -254.73929962515618   -9.21539e+00   2.58180e-01 DIIS
   @DF-UHF iter   3:  -256.97352211625389   -2.23422e+00   1.03730e-02 DIIS
   @DF-UHF iter   4:  -256.97730824701159   -3.78613e-03   1.99992e-03 DIIS
   @DF-UHF iter   5:  -256.97739721563187   -8.89686e-05   4.16681e-04 DIIS
   @DF-UHF iter   6:  -256.97740167938105   -4.46375e-06   1.21915e-05 DIIS
   @DF-UHF iter   7:  -256.97740168260316   -3.22211e-09   3.72249e-07 DIIS
   @DF-UHF iter   8:  -256.97740168261055   -7.38964e-12   6.77053e-08 DIIS
   @DF-UHF iter   9:  -256.97740168261066   -1.13687e-13   1.00578e-08 DIIS
   @DF-UHF iter  10:  -256.97740168261078   -1.13687e-13   1.99043e-09 DIIS

  ==> Post-Iterations <==

   @Spin Contamination Metric:  -3.552713679E-15
   @S^2 Expected:                0.000000000E+00
   @S^2 Observed:               -3.552713679E-15
   @S   Expected:                0.000000000E+00
   @S   Observed:                0.000000000E+00

	Orbital Energies (a.u.)
	-----------------------

	Alpha Occupied:                                                       

	   1B1u  -32.765503     1Ag   -32.765499     2Ag    -1.920566  
	   2B1u   -1.917020     3Ag    -0.844663     1B3u   -0.833797  
	   1B2u   -0.833797     1B2g   -0.830352     1B3g   -0.830352  
	   3B1u   -0.819377  

	Alpha Virtual:                                                        

	   4Ag     1.565480     2B3u    1.675882     2B2u    1.675882  
	   2B2g    1.713776     2B3g    1.713776     4B1u    1.824541  
	   5Ag     2.139259     5B1u    2.208802     3B3g    5.197120  
	   3B2g    5.197120     6B1u    5.197121     1Au     5.197121  
	   6Ag     5.197126     1B1g    5.197126     3B2u    5.197137  
	   3B3u    5.197137     7Ag     5.197228     7B1u    5.197343  

	Beta Occupied:                                                        

	   1B1u  -32.765503     1Ag   -32.765499     2Ag    -1.920566  
	   2B1u   -1.917020     3Ag    -0.844663     1B3u   -0.833797  
	   1B2u   -0.833797     1B2g   -0.830352     1B3g   -0.830352  
	   3B1u   -0.819377  

	Beta Virtual:                                                         

	   4Ag     1.565480     2B3u    1.675882     2B2u    1.675882  
	   2B2g    1.713776     2B3g    1.713776     4B1u    1.824541  
	   5Ag     2.139259     5B1u    2.208802     3B3g    5.197120  
	   3B2g    5.197120     6B1u    5.197121     1Au     5.197121  
	   6Ag     5.197126     1B1g    5.197126     3B2u    5.197137  
	   3B3u    5.197137     7Ag     5.197228     7B1u    5.197343  

	Final Occupation by Irrep:
	         Ag   B1g   B2g   B3g    Au   B1u   B2u   B3u 
	DOCC [     3,    0,    1,    1,    0,    3,    1,    1 ]
	SOCC [     0,    0,    0,    0,    0,    0,    0,    0 ]

  Energy converged.

  @DF-UHF Final Energy:  -256.97740168261078

   => Energetics <=

    Nuclear Repulsion Energy =             20.7520473956862759
    One-Electron Energy =                -406.7370460987660863
    Two-Electron Energy =                 129.0075970204690634
    DFT Exchange-Correlation Energy =       0.0000000000000000
    Empirical Dispersion Energy =           0.0000000000000000
    Total Energy =                       -256.9774016826107186



Properties will be evaluated at   0.000000,   0.000000,   0.000000 Bohr
  ==> Properties <==


Properties computed using the SCF density density matrix
  Nuclear Dipole Moment: (a.u.)
     X:     0.0000      Y:     0.0000      Z:     0.0000

  Electronic Dipole Moment: (a.u.)
     X:     0.0000      Y:     0.0000      Z:     0.0000

  Dipole Moment: (a.u.)
     X:     0.0000      Y:     0.0000      Z:     0.0000     Total:     0.0000

  Dipole Moment: (Debye)
     X:     0.0000      Y:     0.0000      Z:     0.0000     Total:     0.0000


  Saving occupied orbitals to File 180.

*** tstop() called on cx1-12-6-9.cx1.hpc.ic.ac.uk at Wed Feb  5 14:32:02 2014
Module time:
	user time   =       0.19 seconds =       0.00 minutes
	system time =       0.01 seconds =       0.00 minutes
	total time  =          1 seconds =       0.02 minutes
Total time:
	user time   =       1.87 seconds =       0.03 minutes
	system time =       0.09 seconds =       0.00 minutes
	total time  =          8 seconds =       0.13 minutes

  //>>>>>>>>>>>>>>>>>>>>>>>>>>>>>>>>>>>//
  //               DFMP2               //
  //<<<<<<<<<<<<<<<<<<<<<<<<<<<<<<<<<<<//

  No DF_BASIS_MP2 auxiliary basis selected, defaulting to cc-pvdz-ri

*** tstart() called on cx1-12-6-9.cx1.hpc.ic.ac.uk
*** at Wed Feb  5 14:32:02 2014

	 --------------------------------------------------------
	                          DF-MP2                         
	      2nd-Order Density-Fitted Moller-Plesset Theory     
	              UMP2 Wavefunction,   1 Threads             
	                                                         
	        Rob Parrish, Justin Turney, Andy Simmonett,      
	           Ed Hohenstein, and C. David Sherrill          
	 --------------------------------------------------------

	 --------------------------------------------------------
	                 NBF =    28, NAUX =   112
	 --------------------------------------------------------
	   CLASS    FOCC     OCC    AOCC    AVIR     VIR    FVIR
	   ALPHA       0      10      10      18      18       0
	    BETA       0      10      10      18      18       0
	 --------------------------------------------------------

	----------------------------------------------------------
	 ==================> DF-MP2 Energies <=================== 
	----------------------------------------------------------
	 Reference Energy          =    -256.9774016826107754 [H]
	 Singles Energy            =      -0.0000000000000000 [H]
	 Same-Spin Energy          =      -0.1031890768343351 [H]
	 Opposite-Spin Energy      =      -0.2720936716920679 [H]
	 Correlation Energy        =      -0.3752827485264030 [H]
	 Total Energy              =    -257.3526844311371633 [H]
	----------------------------------------------------------
	 ================> DF-SCS-MP2 Energies <================= 
	----------------------------------------------------------
	 SCS Same-Spin Scale       =       0.3333333333333333 [-]
	 SCS Opposite-Spin Scale   =       1.2000000000000000 [-]
	 SCS Same-Spin Energy      =      -0.0343963589447784 [H]
	 SCS Opposite-Spin Energy  =      -0.3265124060304814 [H]
	 SCS Correlation Energy    =      -0.3609087649752598 [H]
	 SCS Total Energy          =    -257.3383104475860250 [H]
	----------------------------------------------------------


*** tstop() called on cx1-12-6-9.cx1.hpc.ic.ac.uk at Wed Feb  5 14:32:03 2014
Module time:
	user time   =       0.14 seconds =       0.00 minutes
	system time =       0.00 seconds =       0.00 minutes
	total time  =          1 seconds =       0.02 minutes
Total time:
	user time   =       2.01 seconds =       0.03 minutes
	system time =       0.09 seconds =       0.00 minutes
	total time  =          9 seconds =       0.15 minutes
Setting geometry variable R to 2.600000

  No DF_BASIS_SCF auxiliary basis selected, defaulting to cc-pvdz-jkfit


*** tstart() called on cx1-12-6-9.cx1.hpc.ic.ac.uk
*** at Wed Feb  5 14:32:03 2014

	There are an even number of electrons - assuming singlet.
	Specify the multiplicity with the MULTP option in the
	input if this is incorrect


         ---------------------------------------------------------
                                   SCF
            by Justin Turney, Rob Parrish, and Andy Simmonett
                              UHF Reference
                        1 Threads,   2000 MiB Core
         ---------------------------------------------------------

  ==> Geometry <==

    Molecular point group: d2h
    Full point group: D_inf_h

    Geometry (in Angstrom), charge = 0, multiplicity = 1:

       Center              X                  Y                   Z       
    ------------   -----------------  -----------------  -----------------
          NE          0.000000000000     0.000000000000    -1.300000000000
          NE          0.000000000000     0.000000000000     1.300000000000

  Running in d2h symmetry.


	Rotational constants (cm^-1):
	A = **********    B =    0.24947   C =    0.24947

	Rotational constants (MHz):
	A = **********    B = 7478.84772   C = 7478.84772
  Nuclear repulsion =   20.352969561153852

  Charge       = 0
  Multiplicity = 1
  Electrons    = 20
  Nalpha       = 10
  Nbeta        = 10

  ==> Algorithm <==

  SCF Algorithm Type is DF.
  DIIS enabled.
  MOM disabled.
  Fractional occupation disabled.
  Guess Type is CORE.
  Energy threshold   = 1.00e-08
  Density threshold  = 1.00e-08
  Integral threshold = 0.00e+00

  ==> Primary Basis <==

  Basis Set: CC-PVDZ
    Number of shells: 12
    Number of basis function: 28
    Number of Cartesian functions: 30
    Spherical Harmonics?: true
    Max angular momentum: 2

  ==> Pre-Iterations <==

   -------------------------------------------------------
    Irrep   Nso     Nmo     Nalpha   Nbeta   Ndocc  Nsocc
   -------------------------------------------------------
     Ag         7       7       0       0       0       0
     B1g        1       1       0       0       0       0
     B2g        3       3       0       0       0       0
     B3g        3       3       0       0       0       0
     Au         1       1       0       0       0       0
     B1u        7       7       0       0       0       0
     B2u        3       3       0       0       0       0
     B3u        3       3       0       0       0       0
   -------------------------------------------------------
    Total      28      28      10      10      10       0
   -------------------------------------------------------

 OEINTS: Wrapper to libmints.
   by Justin Turney

   Calculation information:
      Number of atoms:                   2
      Number of AO shells:              12
      Number of SO shells:               6
      Number of primitives:             44
      Number of atomic orbitals:        30
      Number of basis functions:        28

      Number of irreps:                  8
      Number of functions per irrep: [   7    1    3    3    1    7    3    3 ]

      Overlap, kinetic, potential, dipole, and quadrupole integrals
        stored in file 35.

  ==> Integral Setup <==

  ==> DFJK: Density-Fitted J/K Matrices <==

    J tasked:                  Yes
    K tasked:                  Yes
    wK tasked:                  No
    OpenMP threads:              1
    Integrals threads:           1
    Memory (MB):              1430
    Algorithm:                Core
    Integral Cache:           NONE
    Schwarz Cutoff:          1E-12
    Fitting Condition:       1E-12

   => Auxiliary Basis Set <=

  Basis Set: cc-pvdz-jkfit
    Number of shells: 48
    Number of basis function: 140
    Number of Cartesian functions: 162
    Spherical Harmonics?: true
    Max angular momentum: 3

  Minimum eigenvalue in the overlap matrix is 1.9200377781E-01.
  Using Symmetric Orthogonalization.
  SCF Guess: Core (One-Electron) Hamiltonian.

  ==> Iterations <==

                           Total Energy        Delta E     RMS |[F,P]|

   @DF-UHF iter   1:  -245.52635294593270   -2.45526e+02   3.94165e-01 
   @DF-UHF iter   2:  -254.73836361485323   -9.21201e+00   2.58248e-01 DIIS
   @DF-UHF iter   3:  -256.97363074117891   -2.23527e+00   1.03891e-02 DIIS
   @DF-UHF iter   4:  -256.97742523512721   -3.79449e-03   2.01475e-03 DIIS
   @DF-UHF iter   5:  -256.97751551387535   -9.02787e-05   4.21889e-04 DIIS
   @DF-UHF iter   6:  -256.97752008517779   -4.57130e-06   1.17117e-05 DIIS
   @DF-UHF iter   7:  -256.97752008813154   -2.95375e-09   3.65479e-07 DIIS
   @DF-UHF iter   8:  -256.97752008813808   -6.53699e-12   6.78633e-08 DIIS
   @DF-UHF iter   9:  -256.97752008813825   -1.70530e-13   9.60211e-09 DIIS

  ==> Post-Iterations <==

   @Spin Contamination Metric:  -7.105427358E-15
   @S^2 Expected:                0.000000000E+00
   @S^2 Observed:               -7.105427358E-15
   @S   Expected:                0.000000000E+00
   @S   Observed:                0.000000000E+00

	Orbital Energies (a.u.)
	-----------------------

	Alpha Occupied:                                                       

	   1B1u  -32.765582     1Ag   -32.765579     2Ag    -1.920290  
	   2B1u   -1.917342     3Ag    -0.843212     1B2u   -0.833570  
	   1B3u   -0.833570     1B3g   -0.830643     1B2g   -0.830643  
	   3B1u   -0.820901  

	Alpha Virtual:                                                        

	   4Ag     1.577386     2B3u    1.678607     2B2u    1.678607  
	   2B2g    1.710916     2B3g    1.710916     4B1u    1.813078  
	   5Ag     2.141940     5B1u    2.198487     3B2g    5.197094  
	   3B3g    5.197094     1Au     5.197096     6B1u    5.197096  
	   1B1g    5.197100     6Ag     5.197100     3B3u    5.197110  
	   3B2u    5.197110     7Ag     5.197163     7B1u    5.197235  

	Beta Occupied:                                                        

	   1B1u  -32.765582     1Ag   -32.765579     2Ag    -1.920290  
	   2B1u   -1.917342     3Ag    -0.843212     1B2u   -0.833570  
	   1B3u   -0.833570     1B3g   -0.830643     1B2g   -0.830643  
	   3B1u   -0.820901  

	Beta Virtual:                                                         

	   4Ag     1.577386     2B3u    1.678607     2B2u    1.678607  
	   2B2g    1.710916     2B3g    1.710916     4B1u    1.813078  
	   5Ag     2.141940     5B1u    2.198487     3B2g    5.197094  
	   3B3g    5.197094     1Au     5.197096     6B1u    5.197096  
	   1B1g    5.197100     6Ag     5.197100     3B3u    5.197110  
	   3B2u    5.197110     7Ag     5.197163     7B1u    5.197235  

	Final Occupation by Irrep:
	         Ag   B1g   B2g   B3g    Au   B1u   B2u   B3u 
	DOCC [     3,    0,    1,    1,    0,    3,    1,    1 ]
	SOCC [     0,    0,    0,    0,    0,    0,    0,    0 ]

  Energy converged.

  @DF-UHF Final Energy:  -256.97752008813825

   => Energetics <=

    Nuclear Repulsion Energy =             20.3529695611538521
    One-Electron Energy =                -405.9383141526376448
    Two-Electron Energy =                 128.6078245033455687
    DFT Exchange-Correlation Energy =       0.0000000000000000
    Empirical Dispersion Energy =           0.0000000000000000
    Total Energy =                       -256.9775200881382489



Properties will be evaluated at   0.000000,   0.000000,   0.000000 Bohr
  ==> Properties <==


Properties computed using the SCF density density matrix
  Nuclear Dipole Moment: (a.u.)
     X:     0.0000      Y:     0.0000      Z:     0.0000

  Electronic Dipole Moment: (a.u.)
     X:     0.0000      Y:     0.0000      Z:     0.0000

  Dipole Moment: (a.u.)
     X:     0.0000      Y:     0.0000      Z:     0.0000     Total:     0.0000

  Dipole Moment: (Debye)
     X:     0.0000      Y:     0.0000      Z:     0.0000     Total:     0.0000


  Saving occupied orbitals to File 180.

*** tstop() called on cx1-12-6-9.cx1.hpc.ic.ac.uk at Wed Feb  5 14:32:04 2014
Module time:
	user time   =       0.17 seconds =       0.00 minutes
	system time =       0.02 seconds =       0.00 minutes
	total time  =          1 seconds =       0.02 minutes
Total time:
	user time   =       2.20 seconds =       0.04 minutes
	system time =       0.11 seconds =       0.00 minutes
	total time  =         10 seconds =       0.17 minutes

  //>>>>>>>>>>>>>>>>>>>>>>>>>>>>>>>>>>>//
  //               DFMP2               //
  //<<<<<<<<<<<<<<<<<<<<<<<<<<<<<<<<<<<//

  No DF_BASIS_MP2 auxiliary basis selected, defaulting to cc-pvdz-ri

*** tstart() called on cx1-12-6-9.cx1.hpc.ic.ac.uk
*** at Wed Feb  5 14:32:04 2014

	 --------------------------------------------------------
	                          DF-MP2                         
	      2nd-Order Density-Fitted Moller-Plesset Theory     
	              UMP2 Wavefunction,   1 Threads             
	                                                         
	        Rob Parrish, Justin Turney, Andy Simmonett,      
	           Ed Hohenstein, and C. David Sherrill          
	 --------------------------------------------------------

	 --------------------------------------------------------
	                 NBF =    28, NAUX =   112
	 --------------------------------------------------------
	   CLASS    FOCC     OCC    AOCC    AVIR     VIR    FVIR
	   ALPHA       0      10      10      18      18       0
	    BETA       0      10      10      18      18       0
	 --------------------------------------------------------

	----------------------------------------------------------
	 ==================> DF-MP2 Energies <=================== 
	----------------------------------------------------------
	 Reference Energy          =    -256.9775200881382489 [H]
	 Singles Energy            =      -0.0000000000000002 [H]
	 Same-Spin Energy          =      -0.1031797883537666 [H]
	 Opposite-Spin Energy      =      -0.2720829833496512 [H]
	 Correlation Energy        =      -0.3752627717034180 [H]
	 Total Energy              =    -257.3527828598416818 [H]
	----------------------------------------------------------
	 ================> DF-SCS-MP2 Energies <================= 
	----------------------------------------------------------
	 SCS Same-Spin Scale       =       0.3333333333333333 [-]
	 SCS Opposite-Spin Scale   =       1.2000000000000000 [-]
	 SCS Same-Spin Energy      =      -0.0343932627845889 [H]
	 SCS Opposite-Spin Energy  =      -0.3264995800195814 [H]
	 SCS Correlation Energy    =      -0.3608928428041704 [H]
	 SCS Total Energy          =    -257.3384129309424111 [H]
	----------------------------------------------------------


*** tstop() called on cx1-12-6-9.cx1.hpc.ic.ac.uk at Wed Feb  5 14:32:04 2014
Module time:
	user time   =       0.13 seconds =       0.00 minutes
	system time =       0.00 seconds =       0.00 minutes
	total time  =          0 seconds =       0.00 minutes
Total time:
	user time   =       2.34 seconds =       0.04 minutes
	system time =       0.11 seconds =       0.00 minutes
	total time  =         10 seconds =       0.17 minutes
Setting geometry variable R to 2.650000

  No DF_BASIS_SCF auxiliary basis selected, defaulting to cc-pvdz-jkfit


*** tstart() called on cx1-12-6-9.cx1.hpc.ic.ac.uk
*** at Wed Feb  5 14:32:04 2014

	There are an even number of electrons - assuming singlet.
	Specify the multiplicity with the MULTP option in the
	input if this is incorrect


         ---------------------------------------------------------
                                   SCF
[...]
     B3g        3       3       0       0       0       0
     Au         1       1       0       0       0       0
     B1u        7       7       0       0       0       0
     B2u        3       3       0       0       0       0
     B3u        3       3       0       0       0       0
   -------------------------------------------------------
    Total      28      28      10      10      10       0
   -------------------------------------------------------

 OEINTS: Wrapper to libmints.
   by Justin Turney

   Calculation information:
      Number of atoms:                   2
      Number of AO shells:              12
      Number of SO shells:               6
      Number of primitives:             44
      Number of atomic orbitals:        30
      Number of basis functions:        28

      Number of irreps:                  8
      Number of functions per irrep: [   7    1    3    3    1    7    3    3 ]

      Overlap, kinetic, potential, dipole, and quadrupole integrals
        stored in file 35.

  ==> Integral Setup <==

  ==> DFJK: Density-Fitted J/K Matrices <==

    J tasked:                  Yes
    K tasked:                  Yes
    wK tasked:                  No
    OpenMP threads:              1
    Integrals threads:           1
    Memory (MB):              1430
    Algorithm:                Core
    Integral Cache:           NONE
    Schwarz Cutoff:          1E-12
    Fitting Condition:       1E-12

   => Auxiliary Basis Set <=

  Basis Set: cc-pvdz-jkfit
    Number of shells: 48
    Number of basis function: 140
    Number of Cartesian functions: 162
    Spherical Harmonics?: true
    Max angular momentum: 3

  Minimum eigenvalue in the overlap matrix is 1.9327075180E-01.
  Using Symmetric Orthogonalization.
  SCF Guess: Core (One-Electron) Hamiltonian.

  ==> Iterations <==

                           Total Energy        Delta E     RMS |[F,P]|

   @DF-UHF iter   1:  -245.53969792888103   -2.45540e+02   3.93147e-01 
   @DF-UHF iter   2:  -254.73556922507566   -9.19587e+00   2.58472e-01 DIIS
   @DF-UHF iter   3:  -256.97365867736306   -2.23809e+00   1.04796e-02 DIIS
   @DF-UHF iter   4:  -256.97750213098277   -3.84345e-03   2.13464e-03 DIIS
   @DF-UHF iter   5:  -256.97760340853324   -1.01278e-04   4.75125e-04 DIIS
   @DF-UHF iter   6:  -256.97760915226758   -5.74373e-06   5.60547e-06 DIIS
   @DF-UHF iter   7:  -256.97760915282834   -5.60760e-10   3.61774e-07 DIIS
   @DF-UHF iter   8:  -256.97760915283328   -4.94538e-12   8.33737e-08 DIIS
   @DF-UHF iter   9:  -256.97760915283340   -1.13687e-13   8.72114e-09 DIIS

  ==> Post-Iterations <==

   @Spin Contamination Metric:  -1.776356839E-15
   @S^2 Expected:                0.000000000E+00
   @S^2 Observed:               -1.776356839E-15
   @S   Expected:                0.000000000E+00
   @S   Observed:                0.000000000E+00

	Orbital Energies (a.u.)
	-----------------------

	Alpha Occupied:                                                       

	   1B1u  -32.765680     1Ag   -32.765679     2Ag    -1.918892  
	   2B1u   -1.918741     3Ag    -0.833536     1B2u   -0.832229  
	   1B3u   -0.832229     1B3g   -0.832014     1B2g   -0.832014  
	   3B1u   -0.830706  

	Alpha Virtual:                                                        

	   4Ag     1.680028     2B2u    1.693598     2B3u    1.693598  
	   2B3g    1.695691     2B2g    1.695691     4B1u    1.709313  
	   5Ag     2.158446     5B1u    2.160634     3B3g    5.197100  
	   3B2g    5.197100     6B1u    5.197100     1Au     5.197101  
	   7B1u    5.197101     3B2u    5.197101     3B3u    5.197101  
	   1B1g    5.197101     6Ag     5.197101     7Ag     5.197101  

	Beta Occupied:                                                        

	   1B1u  -32.765680     1Ag   -32.765679     2Ag    -1.918892  
	   2B1u   -1.918741     3Ag    -0.833536     1B2u   -0.832229  
	   1B3u   -0.832229     1B3g   -0.832014     1B2g   -0.832014  
	   3B1u   -0.830706  

	Beta Virtual:                                                         

	   4Ag     1.680028     2B2u    1.693598     2B3u    1.693598  
	   2B3g    1.695691     2B2g    1.695691     4B1u    1.709313  
	   5Ag     2.158446     5B1u    2.160634     3B3g    5.197100  
	   3B2g    5.197100     6B1u    5.197100     1Au     5.197101  
	   7B1u    5.197101     3B2u    5.197101     3B3u    5.197101  
	   1B1g    5.197101     6Ag     5.197101     7Ag     5.197101  

	Final Occupation by Irrep:
	         Ag   B1g   B2g   B3g    Au   B1u   B2u   B3u 
	DOCC [     3,    0,    1,    1,    0,    3,    1,    1 ]
	SOCC [     0,    0,    0,    0,    0,    0,    0,    0 ]

  Energy converged.

  @DF-UHF Final Energy:  -256.97760915283340

   => Energetics <=

    Nuclear Repulsion Energy =             16.0356729875757686
    One-Electron Energy =                -397.3031233317944952
    Two-Electron Energy =                 124.2898411913853352
    DFT Exchange-Correlation Energy =       0.0000000000000000
    Empirical Dispersion Energy =           0.0000000000000000
    Total Energy =                       -256.9776091528333950



Properties will be evaluated at   0.000000,   0.000000,   0.000000 Bohr
  ==> Properties <==


Properties computed using the SCF density density matrix
  Nuclear Dipole Moment: (a.u.)
     X:     0.0000      Y:     0.0000      Z:     0.0000

  Electronic Dipole Moment: (a.u.)
     X:     0.0000      Y:     0.0000      Z:     0.0000

  Dipole Moment: (a.u.)
     X:     0.0000      Y:     0.0000      Z:     0.0000     Total:     0.0000

  Dipole Moment: (Debye)
     X:     0.0000      Y:     0.0000      Z:     0.0000     Total:     0.0000


  Saving occupied orbitals to File 180.

*** tstop() called on cx1-12-6-9.cx1.hpc.ic.ac.uk at Wed Feb  5 14:32:21 2014
Module time:
	user time   =       0.17 seconds =       0.00 minutes
	system time =       0.01 seconds =       0.00 minutes
	total time  =          0 seconds =       0.00 minutes
Total time:
	user time   =       6.13 seconds =       0.10 minutes
	system time =       0.28 seconds =       0.00 minutes
	total time  =         27 seconds =       0.45 minutes

  //>>>>>>>>>>>>>>>>>>>>>>>>>>>>>>>>>>>//
  //               DFMP2               //
  //<<<<<<<<<<<<<<<<<<<<<<<<<<<<<<<<<<<//

  No DF_BASIS_MP2 auxiliary basis selected, defaulting to cc-pvdz-ri

*** tstart() called on cx1-12-6-9.cx1.hpc.ic.ac.uk
*** at Wed Feb  5 14:32:21 2014

	 --------------------------------------------------------
	                          DF-MP2                         
	      2nd-Order Density-Fitted Moller-Plesset Theory     
	              UMP2 Wavefunction,   1 Threads             
	                                                         
	        Rob Parrish, Justin Turney, Andy Simmonett,      
	           Ed Hohenstein, and C. David Sherrill          
	 --------------------------------------------------------

	 --------------------------------------------------------
	                 NBF =    28, NAUX =   112
	 --------------------------------------------------------
	   CLASS    FOCC     OCC    AOCC    AVIR     VIR    FVIR
	   ALPHA       0      10      10      18      18       0
	    BETA       0      10      10      18      18       0
	 --------------------------------------------------------

	----------------------------------------------------------
	 ==================> DF-MP2 Energies <=================== 
	----------------------------------------------------------
	 Reference Energy          =    -256.9776091528333950 [H]
	 Singles Energy            =      -0.0000000000000005 [H]
	 Same-Spin Energy          =      -0.1031237345067426 [H]
	 Opposite-Spin Energy      =      -0.2720061535975209 [H]
	 Correlation Energy        =      -0.3751298881042640 [H]
	 Total Energy              =    -257.3527390409376494 [H]
	----------------------------------------------------------
	 ================> DF-SCS-MP2 Energies <================= 
	----------------------------------------------------------
	 SCS Same-Spin Scale       =       0.3333333333333333 [-]
	 SCS Opposite-Spin Scale   =       1.2000000000000000 [-]
	 SCS Same-Spin Energy      =      -0.0343745781689142 [H]
	 SCS Opposite-Spin Energy  =      -0.3264073843170250 [H]
	 SCS Correlation Energy    =      -0.3607819624859397 [H]
	 SCS Total Energy          =    -257.3383911153193253 [H]
	----------------------------------------------------------


*** tstop() called on cx1-12-6-9.cx1.hpc.ic.ac.uk at Wed Feb  5 14:32:22 2014
Module time:
	user time   =       0.14 seconds =       0.00 minutes
	system time =       0.00 seconds =       0.00 minutes
	total time  =          1 seconds =       0.02 minutes
Total time:
	user time   =       6.27 seconds =       0.10 minutes
	system time =       0.28 seconds =       0.00 minutes
	total time  =         28 seconds =       0.47 minutes
Setting geometry variable R to 3.350000

  No DF_BASIS_SCF auxiliary basis selected, defaulting to cc-pvdz-jkfit


*** tstart() called on cx1-12-6-9.cx1.hpc.ic.ac.uk
*** at Wed Feb  5 14:32:22 2014

	There are an even number of electrons - assuming singlet.
	Specify the multiplicity with the MULTP option in the
	input if this is incorrect


         ---------------------------------------------------------
                                   SCF
            by Justin Turney, Rob Parrish, and Andy Simmonett
                              UHF Reference
                        1 Threads,   2000 MiB Core
         ---------------------------------------------------------

  ==> Geometry <==

    Molecular point group: d2h
    Full point group: D_inf_h

    Geometry (in Angstrom), charge = 0, multiplicity = 1:

       Center              X                  Y                   Z       
    ------------   -----------------  -----------------  -----------------
          NE          0.000000000000     0.000000000000    -1.675000000000
          NE          0.000000000000     0.000000000000     1.675000000000

  Running in d2h symmetry.


	Rotational constants (cm^-1):
	A = **********    B =    0.15027   C =    0.15027

	Rotational constants (MHz):
	A = **********    B = 4504.96864   C = 4504.96864
  Nuclear repulsion =   15.796334584776117

  Charge       = 0
  Multiplicity = 1
  Electrons    = 20
  Nalpha       = 10
  Nbeta        = 10

  ==> Algorithm <==

  SCF Algorithm Type is DF.
  DIIS enabled.
  MOM disabled.
  Fractional occupation disabled.
  Guess Type is CORE.
  Energy threshold   = 1.00e-08
  Density threshold  = 1.00e-08
  Integral threshold = 0.00e+00

  ==> Primary Basis <==

  Basis Set: CC-PVDZ
    Number of shells: 12
    Number of basis function: 28
    Number of Cartesian functions: 30
    Spherical Harmonics?: true
    Max angular momentum: 2

  ==> Pre-Iterations <==

   -------------------------------------------------------
    Irrep   Nso     Nmo     Nalpha   Nbeta   Ndocc  Nsocc
   -------------------------------------------------------
     Ag         7       7       0       0       0       0
     B1g        1       1       0       0       0       0
     B2g        3       3       0       0       0       0
     B3g        3       3       0       0       0       0
     Au         1       1       0       0       0       0
     B1u        7       7       0       0       0       0
     B2u        3       3       0       0       0       0
     B3u        3       3       0       0       0       0
   -------------------------------------------------------
    Total      28      28      10      10      10       0
   -------------------------------------------------------

 OEINTS: Wrapper to libmints.
   by Justin Turney

   Calculation information:
      Number of atoms:                   2
      Number of AO shells:              12
      Number of SO shells:               6
      Number of primitives:             44
      Number of atomic orbitals:        30
      Number of basis functions:        28

      Number of irreps:                  8
      Number of functions per irrep: [   7    1    3    3    1    7    3    3 ]

      Overlap, kinetic, potential, dipole, and quadrupole integrals
        stored in file 35.

  ==> Integral Setup <==

  ==> DFJK: Density-Fitted J/K Matrices <==

    J tasked:                  Yes
    K tasked:                  Yes
    wK tasked:                  No
    OpenMP threads:              1
    Integrals threads:           1
    Memory (MB):              1430
    Algorithm:                Core
    Integral Cache:           NONE
    Schwarz Cutoff:          1E-12
    Fitting Condition:       1E-12

   => Auxiliary Basis Set <=

  Basis Set: cc-pvdz-jkfit
    Number of shells: 48
    Number of basis function: 140
    Number of Cartesian functions: 162
    Spherical Harmonics?: true
    Max angular momentum: 3

  Minimum eigenvalue in the overlap matrix is 1.9327932235E-01.
  Using Symmetric Orthogonalization.
  SCF Guess: Core (One-Electron) Hamiltonian.

  ==> Iterations <==

                           Total Energy        Delta E     RMS |[F,P]|

   @DF-UHF iter   1:  -245.54007139001232   -2.45540e+02   3.93121e-01 
   @DF-UHF iter   2:  -254.73553507038895   -9.19546e+00   2.58474e-01 DIIS
   @DF-UHF iter   3:  -256.97365354327002   -2.23812e+00   1.04821e-02 DIIS
   @DF-UHF iter   4:  -256.97749855207508   -3.84501e-03   2.13938e-03 DIIS
   @DF-UHF iter   5:  -256.97760027646433   -1.01724e-04   4.77804e-04 DIIS
   @DF-UHF iter   6:  -256.97760608292981   -5.80647e-06   5.26947e-06 DIIS
   @DF-UHF iter   7:  -256.97760608341292   -4.83112e-10   3.62194e-07 DIIS
   @DF-UHF iter   8:  -256.97760608341792   -5.00222e-12   8.38271e-08 DIIS
   @DF-UHF iter   9:  -256.97760608341804   -1.13687e-13   8.65765e-09 DIIS

  ==> Post-Iterations <==

   @Spin Contamination Metric:   0.000000000E+00
   @S^2 Expected:                0.000000000E+00
   @S^2 Observed:                0.000000000E+00
   @S   Expected:                0.000000000E+00
   @S   Observed:                0.000000000E+00

	Orbital Energies (a.u.)
	-----------------------

	Alpha Occupied:                                                       

	   1B1u  -32.765678     1Ag   -32.765678     2Ag    -1.918875  
	   2B1u   -1.918757     3Ag    -0.833304     1B3u   -0.832207  
	   1B2u   -0.832207     1B2g   -0.832034     1B3g   -0.832034  
	   3B1u   -0.830937  

	Alpha Virtual:                                                        

	   4Ag     1.682588     2B2u    1.693813     2B3u    1.693813  
	   2B3g    1.695477     2B2g    1.695477     4B1u    1.706733  
	   5Ag     2.158682     5B1u    2.160363     3B3g    5.197101  
	   3B2g    5.197101     6B1u    5.197101     3B2u    5.197102  
	   3B3u    5.197102     1Au     5.197102     7B1u    5.197102  
	   1B1g    5.197102     6Ag     5.197102     7Ag     5.197102  

	Beta Occupied:                                                        

	   1B1u  -32.765678     1Ag   -32.765678     2Ag    -1.918875  
	   2B1u   -1.918757     3Ag    -0.833304     1B3u   -0.832207  
	   1B2u   -0.832207     1B2g   -0.832034     1B3g   -0.832034  
	   3B1u   -0.830937  

	Beta Virtual:                                                         

	   4Ag     1.682588     2B2u    1.693813     2B3u    1.693813  
	   2B3g    1.695477     2B2g    1.695477     4B1u    1.706733  
	   5Ag     2.158682     5B1u    2.160363     3B3g    5.197101  
	   3B2g    5.197101     6B1u    5.197101     3B2u    5.197102  
	   3B3u    5.197102     1Au     5.197102     7B1u    5.197102  
	   1B1g    5.197102     6Ag     5.197102     7Ag     5.197102  

	Final Occupation by Irrep:
	         Ag   B1g   B2g   B3g    Au   B1u   B2u   B3u 
	DOCC [     3,    0,    1,    1,    0,    3,    1,    1 ]
	SOCC [     0,    0,    0,    0,    0,    0,    0,    0 ]

  Energy converged.

  @DF-UHF Final Energy:  -256.97760608341804

   => Energetics <=

    Nuclear Repulsion Energy =             15.7963345847761172
    One-Electron Energy =                -396.8244598946407677
    Two-Electron Energy =                 124.0505192264466245
    DFT Exchange-Correlation Energy =       0.0000000000000000
    Empirical Dispersion Energy =           0.0000000000000000
    Total Energy =                       -256.9776060834180385



Properties will be evaluated at   0.000000,   0.000000,   0.000000 Bohr
  ==> Properties <==


Properties computed using the SCF density density matrix
  Nuclear Dipole Moment: (a.u.)
     X:     0.0000      Y:     0.0000      Z:     0.0000

  Electronic Dipole Moment: (a.u.)
     X:     0.0000      Y:     0.0000      Z:     0.0000

  Dipole Moment: (a.u.)
     X:     0.0000      Y:     0.0000      Z:     0.0000     Total:     0.0000

  Dipole Moment: (Debye)
     X:     0.0000      Y:     0.0000      Z:     0.0000     Total:     0.0000


  Saving occupied orbitals to File 180.

*** tstop() called on cx1-12-6-9.cx1.hpc.ic.ac.uk at Wed Feb  5 14:32:23 2014
Module time:
	user time   =       0.17 seconds =       0.00 minutes
	system time =       0.01 seconds =       0.00 minutes
	total time  =          1 seconds =       0.02 minutes
Total time:
	user time   =       6.45 seconds =       0.11 minutes
	system time =       0.29 seconds =       0.00 minutes
	total time  =         29 seconds =       0.48 minutes

  //>>>>>>>>>>>>>>>>>>>>>>>>>>>>>>>>>>>//
  //               DFMP2               //
  //<<<<<<<<<<<<<<<<<<<<<<<<<<<<<<<<<<<//

  No DF_BASIS_MP2 auxiliary basis selected, defaulting to cc-pvdz-ri

*** tstart() called on cx1-12-6-9.cx1.hpc.ic.ac.uk
*** at Wed Feb  5 14:32:23 2014

	 --------------------------------------------------------
	                          DF-MP2                         
	      2nd-Order Density-Fitted Moller-Plesset Theory     
	              UMP2 Wavefunction,   1 Threads             
	                                                         
	        Rob Parrish, Justin Turney, Andy Simmonett,      
	           Ed Hohenstein, and C. David Sherrill          
	 --------------------------------------------------------

	 --------------------------------------------------------
	                 NBF =    28, NAUX =   112
	 --------------------------------------------------------
	   CLASS    FOCC     OCC    AOCC    AVIR     VIR    FVIR
	   ALPHA       0      10      10      18      18       0
	    BETA       0      10      10      18      18       0
	 --------------------------------------------------------

	----------------------------------------------------------
	 ==================> DF-MP2 Energies <=================== 
	----------------------------------------------------------
	 Reference Energy          =    -256.9776060834180385 [H]
	 Singles Energy            =      -0.0000000000000005 [H]
	 Same-Spin Energy          =      -0.1031229067940406 [H]
	 Opposite-Spin Energy      =      -0.2720051130874736 [H]
	 Correlation Energy        =      -0.3751280198815147 [H]
	 Total Energy              =    -257.3527341032995537 [H]
	----------------------------------------------------------
	 ================> DF-SCS-MP2 Energies <================= 
	----------------------------------------------------------
	 SCS Same-Spin Scale       =       0.3333333333333333 [-]
	 SCS Opposite-Spin Scale   =       1.2000000000000000 [-]
	 SCS Same-Spin Energy      =      -0.0343743022646802 [H]
	 SCS Opposite-Spin Energy  =      -0.3264061357049683 [H]
	 SCS Correlation Energy    =      -0.3607804379696490 [H]
	 SCS Total Energy          =    -257.3383865213876902 [H]
	----------------------------------------------------------


*** tstop() called on cx1-12-6-9.cx1.hpc.ic.ac.uk at Wed Feb  5 14:32:24 2014
Module time:
	user time   =       0.13 seconds =       0.00 minutes
	system time =       0.01 seconds =       0.00 minutes
	total time  =          1 seconds =       0.02 minutes
Total time:
	user time   =       6.58 seconds =       0.11 minutes
	system time =       0.30 seconds =       0.01 minutes
	total time  =         30 seconds =       0.50 minutes

*** PSI4 exiting successfully. Buy a developer a beer!
