    -----------------------------------------------------------------------
          PSI4: An Open-Source Ab Initio Electronic Structure Package
                              PSI 4.0.0-beta5+ Driver

               Git: Rev {master} eab4c2bf53d0cfe2fa7ff775dfb81b740d89e238

    J. M. Turney, A. C. Simmonett, R. M. Parrish, E. G. Hohenstein,
    F. A. Evangelista, J. T. Fermann, B. J. Mintz, L. A. Burns, J. J. Wilke,
    M. L. Abrams, N. J. Russ, M. L. Leininger, C. L. Janssen, E. T. Seidl,
    W. D. Allen, H. F. Schaefer, R. A. King, E. F. Valeev, C. D. Sherrill,
    and T. D. Crawford, WIREs Comput. Mol. Sci. 2, 556-565 (2012)
    (doi: 10.1002/wcms.93)

                         Additional Contributions by
    A. E. DePrince, M. Saitow, U. Bozkaya, A. Yu. Sokolov
    -----------------------------------------------------------------------

    Process ID:   6699
    PSI4DATADIR: /home/wv111/local/share/psi/

    Using LocalCommunicator (Number of processes = 1)

    Memory level set to 256.000 MB

  ==> Input File <==

--------------------------------------------------------------------------
memory 3000 mb

molecule dimer {
  He
}


set basis cc-pVDZ
set reference uhf

# Initialize a blank dictionary of counterpoise corrected energies
# (Need this for the syntax below to work)
ecp = {}
energy('mp2')
--------------------------------------------------------------------------

  Memory set to   3.000 GiB by Python script.

  No DF_BASIS_SCF auxiliary basis selected, defaulting to cc-pvdz-jkfit


*** tstart() called on cx1-12-6-2.cx1.hpc.ic.ac.uk
*** at Tue Feb  4 14:53:44 2014

	There are an even number of electrons - assuming singlet.
	Specify the multiplicity with the MULTP option in the
	input if this is incorrect


         ---------------------------------------------------------
                                   SCF
            by Justin Turney, Rob Parrish, and Andy Simmonett
                              UHF Reference
                        1 Threads,   3000 MiB Core
         ---------------------------------------------------------

  ==> Geometry <==

    Molecular point group: d2h
    Geometry (in Angstrom), charge = 0, multiplicity = 1:

       Center              X                  Y                   Z       
    ------------   -----------------  -----------------  -----------------
          HE          0.000000000000     0.000000000000     0.000000000000

  Running in d2h symmetry.


	Rotational constants (cm^-1):
	A = **********    B = **********    C = **********  

	Rotational constants (MHz):
	A = **********    B = **********    C = **********  
  Nuclear repulsion =    0.000000000000000

  Charge       = 0
  Multiplicity = 1
  Electrons    = 2
  Nalpha       = 1
  Nbeta        = 1

  ==> Algorithm <==

  SCF Algorithm Type is DF.
  DIIS enabled.
  MOM disabled.
  Fractional occupation disabled.
  Guess Type is CORE.
  Energy threshold   = 1.00e-08
  Density threshold  = 1.00e-08
  Integral threshold = 0.00e+00

  ==> Primary Basis <==

  Basis Set: CC-PVDZ
    Number of shells: 3
    Number of basis function: 5
    Number of Cartesian functions: 5
    Spherical Harmonics?: true
    Max angular momentum: 1

  ==> Pre-Iterations <==

   -------------------------------------------------------
    Irrep   Nso     Nmo     Nalpha   Nbeta   Ndocc  Nsocc
   -------------------------------------------------------
     Ag         2       2       0       0       0       0
     B1g        0       0       0       0       0       0
     B2g        0       0       0       0       0       0
     B3g        0       0       0       0       0       0
     Au         0       0       0       0       0       0
     B1u        1       1       0       0       0       0
     B2u        1       1       0       0       0       0
     B3u        1       1       0       0       0       0
   -------------------------------------------------------
    Total       5       5       1       1       1       0
   -------------------------------------------------------

 OEINTS: Wrapper to libmints.
   by Justin Turney

   Calculation information:
      Number of atoms:                   1
      Number of AO shells:               3
      Number of SO shells:               3
      Number of primitives:              5
      Number of atomic orbitals:         5
      Number of basis functions:         5

      Number of irreps:                  8
      Number of functions per irrep: [   2    0    0    0    0    1    1    1 ]

      Overlap, kinetic, potential, dipole, and quadrupole integrals
        stored in file 35.

  ==> Integral Setup <==

!!!!!!!!!!!!!!!!!!!!!!!!!!!!!!!!!!!!!!!!!!!!!!!!!
sanity check failed! Gaussian94BasisSetParser::parser: Unable to find the basis set for HE in /home/wv111/local/share/psi//basis/cc-pvdz-jkfit.gbs
file: /home/wv111/psi4release/src/lib/libmints/basisset_parser.cc
line: 362
   Turning off DF and switching to PK method.
!!!!!!!!!!!!!!!!!!!!!!!!!!!!!!!!!!!!!!!!!!!!!!!!!
 MINTS: Wrapper to libmints.
   by Justin Turney

   Calculation information:
      Number of atoms:                   1
      Number of AO shells:               3
      Number of SO shells:               3
      Number of primitives:              5
      Number of atomic orbitals:         5
      Number of basis functions:         5

      Number of irreps:                  8
      Integral cutoff                 0.00e+00
      Number of functions per irrep: [   2    0    0    0    0    1    1    1 ]

      Overlap, kinetic, potential, dipole, and quadrupole integrals
        stored in file 35.

      Computing two-electron integrals...done
      Computed 33 non-zero two-electron integrals.
        Stored in file 33.

	Batch   1 pq = [       0,       6] index = [             0,21]
  ==> DiskJK: Disk-Based J/K Matrices <==

    J tasked:                  Yes
    K tasked:                  Yes
    wK tasked:                  No
    Memory (MB):              2145
    Schwarz Cutoff:          1E-12

  Minimum eigenvalue in the overlap matrix is 3.6583226831E-01.
  Using Symmetric Orthogonalization.
  SCF Guess: Core (One-Electron) Hamiltonian.

  ==> Iterations <==

                        Total Energy        Delta E     RMS |[F,P]|

   @UHF iter   1:    -2.74189680632999   -2.74190e+00   1.80274e-01 
   @UHF iter   2:    -2.85440990349123   -1.12513e-01   1.51220e-02 DIIS
   @UHF iter   3:    -2.85516044565469   -7.50542e-04   9.81900e-05 DIIS
   @UHF iter   4:    -2.85516047724238   -3.15877e-08   3.32428e-07 DIIS
   @UHF iter   5:    -2.85516047724274   -3.62821e-13   7.53620e-10 DIIS

  ==> Post-Iterations <==

   @Spin Contamination Metric:   2.220446049E-16
   @S^2 Expected:                0.000000000E+00
   @S^2 Observed:                2.220446049E-16
   @S   Expected:                0.000000000E+00
   @S   Observed:                0.000000000E+00

	Orbital Energies (a.u.)
	-----------------------

	Alpha Occupied:                                                       

	   1Ag    -0.914148  

	Alpha Virtual:                                                        

	   2Ag     1.397442     1B1u    2.524372     1B3u    2.524372  
	   1B2u    2.524372  

	Beta Occupied:                                                        

	   1Ag    -0.914148  

	Beta Virtual:                                                         

	   2Ag     1.397442     1B1u    2.524372     1B3u    2.524372  
	   1B2u    2.524372  

	Final Occupation by Irrep:
	         Ag   B1g   B2g   B3g    Au   B1u   B2u   B3u 
	DOCC [     1,    0,    0,    0,    0,    0,    0,    0 ]
	SOCC [     0,    0,    0,    0,    0,    0,    0,    0 ]

  Energy converged.

  @UHF Final Energy:    -2.85516047724274

   => Energetics <=

    Nuclear Repulsion Energy =              0.0000000000000000
    One-Electron Energy =                  -3.8820251017722445
    Two-Electron Energy =                   1.0268646245295039
    DFT Exchange-Correlation Energy =       0.0000000000000000
    Empirical Dispersion Energy =           0.0000000000000000
    Total Energy =                         -2.8551604772427406



Properties will be evaluated at   0.000000,   0.000000,   0.000000 Bohr
  ==> Properties <==


Properties computed using the SCF density density matrix
  Nuclear Dipole Moment: (a.u.)
     X:     0.0000      Y:     0.0000      Z:     0.0000

  Electronic Dipole Moment: (a.u.)
     X:     0.0000      Y:     0.0000      Z:     0.0000

  Dipole Moment: (a.u.)
     X:     0.0000      Y:     0.0000      Z:     0.0000     Total:     0.0000

  Dipole Moment: (Debye)
     X:     0.0000      Y:     0.0000      Z:     0.0000     Total:     0.0000


  Saving occupied orbitals to File 180.

*** tstop() called on cx1-12-6-2.cx1.hpc.ic.ac.uk at Tue Feb  4 14:53:46 2014
Module time:
	user time   =       0.05 seconds =       0.00 minutes
	system time =       0.01 seconds =       0.00 minutes
	total time  =          2 seconds =       0.03 minutes
Total time:
	user time   =       0.05 seconds =       0.00 minutes
	system time =       0.01 seconds =       0.00 minutes
	total time  =          2 seconds =       0.03 minutes

  //>>>>>>>>>>>>>>>>>>>>>>>>>>>>>>>>>>>//
  //               DFMP2               //
  //<<<<<<<<<<<<<<<<<<<<<<<<<<<<<<<<<<<//

  No DF_BASIS_MP2 auxiliary basis selected, defaulting to cc-pvdz-ri

*** tstart() called on cx1-12-6-2.cx1.hpc.ic.ac.uk
*** at Tue Feb  4 14:53:46 2014

	 --------------------------------------------------------
	                          DF-MP2                         
	      2nd-Order Density-Fitted Moller-Plesset Theory     
	              UMP2 Wavefunction,   1 Threads             
	                                                         
	        Rob Parrish, Justin Turney, Andy Simmonett,      
	           Ed Hohenstein, and C. David Sherrill          
	 --------------------------------------------------------

	 --------------------------------------------------------
	                 NBF =     5, NAUX =     9
	 --------------------------------------------------------
	   CLASS    FOCC     OCC    AOCC    AVIR     VIR    FVIR
	   ALPHA       0       1       1       4       4       0
	    BETA       0       1       1       4       4       0
	 --------------------------------------------------------

	----------------------------------------------------------
	 ==================> DF-MP2 Energies <=================== 
	----------------------------------------------------------
	 Reference Energy          =      -2.8551604772427410 [H]
	 Singles Energy            =      -0.0000000000000000 [H]
	 Same-Spin Energy          =       0.0000000000000000 [H]
	 Opposite-Spin Energy      =      -0.0258244934942787 [H]
	 Correlation Energy        =      -0.0258244934942787 [H]
	 Total Energy              =      -2.8809849707370199 [H]
	----------------------------------------------------------
	 ================> DF-SCS-MP2 Energies <================= 
	----------------------------------------------------------
	 SCS Same-Spin Scale       =       0.3333333333333333 [-]
	 SCS Opposite-Spin Scale   =       1.2000000000000000 [-]
	 SCS Same-Spin Energy      =       0.0000000000000000 [H]
	 SCS Opposite-Spin Energy  =      -0.0309893921931345 [H]
	 SCS Correlation Energy    =      -0.0309893921931345 [H]
	 SCS Total Energy          =      -2.8861498694358754 [H]
	----------------------------------------------------------


*** tstop() called on cx1-12-6-2.cx1.hpc.ic.ac.uk at Tue Feb  4 14:53:46 2014
Module time:
	user time   =       0.07 seconds =       0.00 minutes
	system time =       0.00 seconds =       0.00 minutes
	total time  =          0 seconds =       0.00 minutes
Total time:
	user time   =       0.12 seconds =       0.00 minutes
	system time =       0.01 seconds =       0.00 minutes
	total time  =          2 seconds =       0.03 minutes

*** PSI4 exiting successfully. Buy a developer a beer!
