    -----------------------------------------------------------------------
          PSI4: An Open-Source Ab Initio Electronic Structure Package
                              PSI 4.0.0-beta5+ Driver

               Git: Rev {master} eab4c2bf53d0cfe2fa7ff775dfb81b740d89e238

    J. M. Turney, A. C. Simmonett, R. M. Parrish, E. G. Hohenstein,
    F. A. Evangelista, J. T. Fermann, B. J. Mintz, L. A. Burns, J. J. Wilke,
    M. L. Abrams, N. J. Russ, M. L. Leininger, C. L. Janssen, E. T. Seidl,
    W. D. Allen, H. F. Schaefer, R. A. King, E. F. Valeev, C. D. Sherrill,
    and T. D. Crawford, WIREs Comput. Mol. Sci. 2, 556-565 (2012)
    (doi: 10.1002/wcms.93)

                         Additional Contributions by
    A. E. DePrince, M. Saitow, U. Bozkaya, A. Yu. Sokolov
    -----------------------------------------------------------------------

    Process ID:  26190
    PSI4DATADIR: /home/wv111/local/share/psi/

    Using LocalCommunicator (Number of processes = 1)

    Memory level set to 256.000 MB

  ==> Input File <==

--------------------------------------------------------------------------
#! Example potential energy surface scan and CP-correction for Ne2

memory 2000 mb

molecule dimer {
  Ne
}



set basis cc-pVDZ
set reference uhf

energy('ccsd(t)')
--------------------------------------------------------------------------

  Memory set to   2.000 GiB by Python script.

*** tstart() called on cx1-12-3-10.cx1.hpc.ic.ac.uk
*** at Mon Dec  2 14:09:02 2013

	There are an even number of electrons - assuming singlet.
	Specify the multiplicity with the MULTP option in the
	input if this is incorrect


         ---------------------------------------------------------
                                   SCF
            by Justin Turney, Rob Parrish, and Andy Simmonett
                              UHF Reference
                        1 Threads,   2000 MiB Core
         ---------------------------------------------------------

  ==> Geometry <==

    Molecular point group: d2h
    Geometry (in Angstrom), charge = 0, multiplicity = 1:

       Center              X                  Y                   Z       
    ------------   -----------------  -----------------  -----------------
          NE          0.000000000000     0.000000000000     0.000000000000

  Running in d2h symmetry.


	Rotational constants (cm^-1):
	A = **********    B = **********    C = **********  

	Rotational constants (MHz):
	A = **********    B = **********    C = **********  
  Nuclear repulsion =    0.000000000000000

  Charge       = 0
  Multiplicity = 1
  Electrons    = 10
  Nalpha       = 5
  Nbeta        = 5

  ==> Algorithm <==

  SCF Algorithm Type is PK.
  DIIS enabled.
  MOM disabled.
  Fractional occupation disabled.
  Guess Type is CORE.
  Energy threshold   = 1.00e-08
  Density threshold  = 1.00e-08
  Integral threshold = 0.00e+00

  ==> Primary Basis <==

  Basis Set: CC-PVDZ
    Number of shells: 6
    Number of basis function: 14
    Number of Cartesian functions: 15
    Spherical Harmonics?: true
    Max angular momentum: 2

  ==> Pre-Iterations <==

   -------------------------------------------------------
    Irrep   Nso     Nmo     Nalpha   Nbeta   Ndocc  Nsocc
   -------------------------------------------------------
     Ag         5       5       0       0       0       0
     B1g        1       1       0       0       0       0
     B2g        1       1       0       0       0       0
     B3g        1       1       0       0       0       0
     Au         0       0       0       0       0       0
     B1u        2       2       0       0       0       0
     B2u        2       2       0       0       0       0
     B3u        2       2       0       0       0       0
   -------------------------------------------------------
    Total      14      14       5       5       5       0
   -------------------------------------------------------

  Starting with a DF guess...

 OEINTS: Wrapper to libmints.
   by Justin Turney

   Calculation information:
      Number of atoms:                   1
      Number of AO shells:               6
      Number of SO shells:               6
      Number of primitives:             22
      Number of atomic orbitals:        15
      Number of basis functions:        14

      Number of irreps:                  8
      Number of functions per irrep: [   5    1    1    1    0    2    2    2 ]

      Overlap, kinetic, potential, dipole, and quadrupole integrals
        stored in file 35.

  ==> Integral Setup <==

  ==> DFJK: Density-Fitted J/K Matrices <==

    J tasked:                  Yes
    K tasked:                  Yes
    wK tasked:                  No
    OpenMP threads:              1
    Integrals threads:           1
    Memory (MB):              1430
    Algorithm:                Core
    Integral Cache:           NONE
    Schwarz Cutoff:          1E-12
    Fitting Condition:       1E-12

   => Auxiliary Basis Set <=

  Basis Set: CC-PVDZ-JKFIT
    Number of shells: 24
    Number of basis function: 70
    Number of Cartesian functions: 81
    Spherical Harmonics?: true
    Max angular momentum: 3

  Minimum eigenvalue in the overlap matrix is 1.9330486283E-01.
  Using Symmetric Orthogonalization.
  SCF Guess: Core (One-Electron) Hamiltonian.

  ==> Iterations <==

                           Total Energy        Delta E     RMS |[F,P]|

   @DF-UHF iter   1:  -122.77299660256577   -1.22773e+02   5.12050e-01 
   @DF-UHF iter   2:  -127.36748844384414   -4.59449e+00   3.37057e-01 DIIS
   @DF-UHF iter   3:  -128.48680374857301   -1.11932e+00   1.37187e-02 DIIS
   @DF-UHF iter   4:  -128.48873838767653   -1.93464e-03   2.89397e-03 DIIS
   @DF-UHF iter   5:  -128.48879298914659   -5.46015e-05   6.98271e-04 DIIS
   @DF-UHF iter   6:  -128.48879661006694   -3.62092e-06   4.95326e-06 DIIS
   @DF-UHF iter   7:  -128.48879661029596   -2.29022e-10   1.64551e-07 DIIS
   @DF-UHF iter   8:  -128.48879661029613   -1.70530e-13   3.80094e-09 DIIS

  DF guess converged.

  ==> Integral Setup <==

 MINTS: Wrapper to libmints.
   by Justin Turney

   Calculation information:
      Number of atoms:                   1
      Number of AO shells:               6
      Number of SO shells:               6
      Number of primitives:             22
      Number of atomic orbitals:        15
      Number of basis functions:        14

      Number of irreps:                  8
      Integral cutoff                 0.00e+00
      Number of functions per irrep: [   5    1    1    1    0    2    2    2 ]

      Overlap, kinetic, potential, dipole, and quadrupole integrals
        stored in file 35.

      Computing two-electron integrals...done
      Computed 794 non-zero two-electron integrals.
        Stored in file 33.

	Batch   1 pq = [       0,      27] index = [             0,378]
  ==> DiskJK: Disk-Based J/K Matrices <==

    J tasked:                  Yes
    K tasked:                  Yes
    wK tasked:                  No
    Memory (MB):              1430
    Schwarz Cutoff:          1E-12

   @UHF iter   9:  -128.48877555141900    2.10589e-05   5.50617e-06 DIIS
   @UHF iter  10:  -128.48877555167624   -2.57245e-10   2.60269e-06 DIIS
   @UHF iter  11:  -128.48877555174053   -6.42899e-11   8.02381e-08 DIIS
   @UHF iter  12:  -128.48877555174067   -1.42109e-13   6.53320e-09 DIIS

  ==> Post-Iterations <==

   @Spin Contamination Metric:   2.664535259E-15
   @S^2 Expected:                0.000000000E+00
   @S^2 Observed:                2.664535259E-15
   @S   Expected:                0.000000000E+00
   @S   Observed:                0.000000000E+00

	Orbital Energies (a.u.)
	-----------------------

	Alpha Occupied:                                                       

	   1Ag   -32.765635     2Ag    -1.918798     1B2u   -0.832097  
	   1B1u   -0.832097     1B3u   -0.832097  

	Alpha Virtual:                                                        

	   2B2u    1.694558     2B1u    1.694558     2B3u    1.694558  
	   3Ag     2.159425     1B3g    5.196711     1B1g    5.196711  
	   4Ag     5.196711     1B2g    5.196711     5Ag     5.196711  

	Beta Occupied:                                                        

	   1Ag   -32.765635     2Ag    -1.918798     1B2u   -0.832097  
	   1B1u   -0.832097     1B3u   -0.832097  

	Beta Virtual:                                                         

	   2B2u    1.694558     2B1u    1.694558     2B3u    1.694558  
	   3Ag     2.159425     1B3g    5.196711     1B1g    5.196711  
	   4Ag     5.196711     1B2g    5.196711     5Ag     5.196711  

	Final Occupation by Irrep:
	         Ag   B1g   B2g   B3g    Au   B1u   B2u   B3u 
	DOCC [     2,    0,    0,    0,    0,    1,    1,    1 ]
	SOCC [     0,    0,    0,    0,    0,    0,    0,    0 ]

  Energy converged.

  @UHF Final Energy:  -128.48877555174067

   => Energetics <=

    Nuclear Repulsion Energy =              0.0000000000000000
    One-Electron Energy =                -182.6161003032148358
    Two-Electron Energy =                  54.1273247514741485
    DFT Exchange-Correlation Energy =       0.0000000000000000
    Empirical Dispersion Energy =           0.0000000000000000
    Total Energy =                       -128.4887755517406731



Properties will be evaluated at   0.000000,   0.000000,   0.000000 Bohr
  ==> Properties <==


Properties computed using the SCF density density matrix
  Nuclear Dipole Moment: (a.u.)
     X:     0.0000      Y:     0.0000      Z:     0.0000

  Electronic Dipole Moment: (a.u.)
     X:     0.0000      Y:     0.0000      Z:     0.0000

  Dipole Moment: (a.u.)
     X:     0.0000      Y:     0.0000      Z:     0.0000     Total:     0.0000

  Dipole Moment: (Debye)
     X:     0.0000      Y:     0.0000      Z:     0.0000     Total:     0.0000


  Saving occupied orbitals to File 180.

*** tstop() called on cx1-12-3-10.cx1.hpc.ic.ac.uk at Mon Dec  2 14:10:09 2013
Module time:
	user time   =       0.17 seconds =       0.00 minutes
	system time =       0.02 seconds =       0.00 minutes
	total time  =         67 seconds =       1.12 minutes
Total time:
	user time   =       0.17 seconds =       0.00 minutes
	system time =       0.02 seconds =       0.00 minutes
	total time  =         67 seconds =       1.12 minutes

*** tstart() called on cx1-12-3-10.cx1.hpc.ic.ac.uk
*** at Mon Dec  2 14:10:09 2013


	**************************************************
	* TRANSQT2: Program to transform integrals from  *
	*           the SO basis to the MO basis.        *
	*                                                *
	*            Daniel, David, & Justin             *
	**************************************************


	Input parameters:
	-----------------
	Wave function   =	CCSD_T
	Backtransform   =	No
	Print Level     =	1
	Print TEIs      =	No
	Reference wfn   =	UHF
	Derivative      =	None
	Delete TEI File =	Yes
	Memory (Mbytes) =	2000.0
	Cache Level     =	2
	Cache Type      =	LRU
	Chkpt Parameters:
	--------------------
	Number of irreps     = 8
	Number of SOs        = 14
	Number of MOs        = 14
	Number of active MOs = 14

	Label	# SOs	# FZDC	# DOCC	# SOCC	# VIRT	# FZVR
	-----	-----	------	------	------	------	------
	 Ag	   5	    0	    2	    0	    3	    0
	 B1g	   1	    0	    0	    0	    1	    0
	 B2g	   1	    0	    0	    0	    1	    0
	 B3g	   1	    0	    0	    0	    1	    0
	 Au	   0	    0	    0	    0	    0	    0
	 B1u	   2	    0	    1	    0	    1	    0
	 B2u	   2	    0	    1	    0	    1	    0
	 B3u	   2	    0	    1	    0	    1	    0

	Nuclear Rep. energy (chkpt) =      0.00000000000000
	SCF energy          (chkpt) =   -128.48877555174067

	Presorting SO-basis two-electron integrals.
	Sorting File: SO Ints (pq,rs) nbuckets = 1
	Frozen-core energy =    0.000000000000000
	Starting AA/AB first half-transformation.
	Sorting AA/AB half-transformed integrals.
	Starting AA second half-transformation.
	Starting AB second half-transformation.
	Starting BB first half-transformation.
	Sorting BB half-transformed integrals.
	Starting BB second half-transformation.
	Two-electron integral transformation complete.

*** tstop() called on cx1-12-3-10.cx1.hpc.ic.ac.uk at Mon Dec  2 14:10:18 2013
Module time:
	user time   =       0.00 seconds =       0.00 minutes
	system time =       0.01 seconds =       0.00 minutes
	total time  =          9 seconds =       0.15 minutes
Total time:
	user time   =       0.18 seconds =       0.00 minutes
	system time =       0.03 seconds =       0.00 minutes
	total time  =         76 seconds =       1.27 minutes

*** tstart() called on cx1-12-3-10.cx1.hpc.ic.ac.uk
*** at Mon Dec  2 14:10:18 2013


			**************************
			*                        *
			*         CCSORT         *
			*                        *
			**************************


	Input parameters:
	-----------------
	Wave function   =	CCSD_T
	Reference wfn   =	UHF
	Derivative      =	None
	Memory (Mbytes) =	2000.0
	AO Basis        =	NONE
	Make (ab|cd)    =	True
	Make unpacked (ab|cd) =	True
	Cache Level     =	2
	Cache Type      =	LRU
	Local CC        =     No


	Chkpt Parameters:
	--------------------
	Number of irreps     = 8
	Number of MOs        = 14
	Number of active MOs = 14

	Label	# MOs	# FZDC	# DOCC	# SOCC	# VIRT	# FZVR
	-----	-----	------	------	------	------	------
	 Ag	   5	    0	    2	    0	    3	    0
	 B1g	   1	    0	    0	    0	    1	    0
	 B2g	   1	    0	    0	    0	    1	    0
	 B3g	   1	    0	    0	    0	    1	    0
	 Au	   0	    0	    0	    0	    0	    0
	 B1u	   2	    0	    1	    0	    1	    0
	 B2u	   2	    0	    1	    0	    1	    0
	 B3u	   2	    0	    1	    0	    1	    0

	Nuclear Rep. energy (chkpt) =      0.00000000000000
	SCF energy          (chkpt) =   -128.48877555174067

	Size of irrep 0 of <AB|CD> integrals:      0.000 (MW) /      0.000 (MB)
	Size of irrep 1 of <AB|CD> integrals:      0.000 (MW) /      0.000 (MB)
	Size of irrep 2 of <AB|CD> integrals:      0.000 (MW) /      0.000 (MB)
	Size of irrep 3 of <AB|CD> integrals:      0.000 (MW) /      0.000 (MB)
	Size of irrep 4 of <AB|CD> integrals:      0.000 (MW) /      0.000 (MB)
	Size of irrep 5 of <AB|CD> integrals:      0.000 (MW) /      0.000 (MB)
	Size of irrep 6 of <AB|CD> integrals:      0.000 (MW) /      0.000 (MB)
	Size of irrep 7 of <AB|CD> integrals:      0.000 (MW) /      0.000 (MB)
	Total:                                     0.000 (MW) /      0.001 (MB)

	Size of irrep 0 of <ab|cd> integrals:      0.000 (MW) /      0.000 (MB)
	Size of irrep 1 of <ab|cd> integrals:      0.000 (MW) /      0.000 (MB)
	Size of irrep 2 of <ab|cd> integrals:      0.000 (MW) /      0.000 (MB)
	Size of irrep 3 of <ab|cd> integrals:      0.000 (MW) /      0.000 (MB)
	Size of irrep 4 of <ab|cd> integrals:      0.000 (MW) /      0.000 (MB)
	Size of irrep 5 of <ab|cd> integrals:      0.000 (MW) /      0.000 (MB)
	Size of irrep 6 of <ab|cd> integrals:      0.000 (MW) /      0.000 (MB)
	Size of irrep 7 of <ab|cd> integrals:      0.000 (MW) /      0.000 (MB)
	Total:                                     0.000 (MW) /      0.001 (MB)

	Size of irrep 0 of <Ab|Cd> integrals:      0.000 (MW) /      0.002 (MB)
	Size of irrep 1 of <Ab|Cd> integrals:      0.000 (MW) /      0.001 (MB)
	Size of irrep 2 of <Ab|Cd> integrals:      0.000 (MW) /      0.001 (MB)
	Size of irrep 3 of <Ab|Cd> integrals:      0.000 (MW) /      0.001 (MB)
	Size of irrep 4 of <Ab|Cd> integrals:      0.000 (MW) /      0.000 (MB)
	Size of irrep 5 of <Ab|Cd> integrals:      0.000 (MW) /      0.001 (MB)
	Size of irrep 6 of <Ab|Cd> integrals:      0.000 (MW) /      0.001 (MB)
	Size of irrep 7 of <Ab|Cd> integrals:      0.000 (MW) /      0.001 (MB)
	Total:                                     0.001 (MW) /      0.007 (MB)

	Size of irrep 0 of <IA|BC> integrals:      0.000 (MW) /      0.001 (MB)
	Size of irrep 1 of <IA|BC> integrals:      0.000 (MW) /      0.000 (MB)
	Size of irrep 2 of <IA|BC> integrals:      0.000 (MW) /      0.000 (MB)
	Size of irrep 3 of <IA|BC> integrals:      0.000 (MW) /      0.000 (MB)
	Size of irrep 4 of <IA|BC> integrals:      0.000 (MW) /      0.000 (MB)
	Size of irrep 5 of <IA|BC> integrals:      0.000 (MW) /      0.001 (MB)
	Size of irrep 6 of <IA|BC> integrals:      0.000 (MW) /      0.001 (MB)
	Size of irrep 7 of <IA|BC> integrals:      0.000 (MW) /      0.001 (MB)
	Total:                                     0.000 (MW) /      0.004 (MB)

	Size of irrep 0 of <ia|bc> integrals:      0.000 (MW) /      0.001 (MB)
	Size of irrep 1 of <ia|bc> integrals:      0.000 (MW) /      0.000 (MB)
	Size of irrep 2 of <ia|bc> integrals:      0.000 (MW) /      0.000 (MB)
	Size of irrep 3 of <ia|bc> integrals:      0.000 (MW) /      0.000 (MB)
	Size of irrep 4 of <ia|bc> integrals:      0.000 (MW) /      0.000 (MB)
	Size of irrep 5 of <ia|bc> integrals:      0.000 (MW) /      0.001 (MB)
	Size of irrep 6 of <ia|bc> integrals:      0.000 (MW) /      0.001 (MB)
	Size of irrep 7 of <ia|bc> integrals:      0.000 (MW) /      0.001 (MB)
	Total:                                     0.000 (MW) /      0.004 (MB)

	Size of irrep 0 of <Ia|Bc> integrals:      0.000 (MW) /      0.001 (MB)
	Size of irrep 1 of <Ia|Bc> integrals:      0.000 (MW) /      0.000 (MB)
	Size of irrep 2 of <Ia|Bc> integrals:      0.000 (MW) /      0.000 (MB)
	Size of irrep 3 of <Ia|Bc> integrals:      0.000 (MW) /      0.000 (MB)
	Size of irrep 4 of <Ia|Bc> integrals:      0.000 (MW) /      0.000 (MB)
	Size of irrep 5 of <Ia|Bc> integrals:      0.000 (MW) /      0.001 (MB)
	Size of irrep 6 of <Ia|Bc> integrals:      0.000 (MW) /      0.001 (MB)
	Size of irrep 7 of <Ia|Bc> integrals:      0.000 (MW) /      0.001 (MB)
	Total:                                     0.000 (MW) /      0.004 (MB)

	Size of irrep 0 of <iA|bC> integrals:      0.000 (MW) /      0.001 (MB)
	Size of irrep 1 of <iA|bC> integrals:      0.000 (MW) /      0.000 (MB)
	Size of irrep 2 of <iA|bC> integrals:      0.000 (MW) /      0.000 (MB)
	Size of irrep 3 of <iA|bC> integrals:      0.000 (MW) /      0.000 (MB)
	Size of irrep 4 of <iA|bC> integrals:      0.000 (MW) /      0.000 (MB)
	Size of irrep 5 of <iA|bC> integrals:      0.000 (MW) /      0.001 (MB)
	Size of irrep 6 of <iA|bC> integrals:      0.000 (MW) /      0.001 (MB)
	Size of irrep 7 of <iA|bC> integrals:      0.000 (MW) /      0.001 (MB)
	Total:                                     0.000 (MW) /      0.004 (MB)

	Size of irrep 0 of tIjAb amplitudes:       0.000 (MW) /      0.001 (MB)
	Size of irrep 1 of tIjAb amplitudes:       0.000 (MW) /      0.000 (MB)
	Size of irrep 2 of tIjAb amplitudes:       0.000 (MW) /      0.000 (MB)
	Size of irrep 3 of tIjAb amplitudes:       0.000 (MW) /      0.000 (MB)
	Size of irrep 4 of tIjAb amplitudes:       0.000 (MW) /      0.000 (MB)
	Size of irrep 5 of tIjAb amplitudes:       0.000 (MW) /      0.000 (MB)
	Size of irrep 6 of tIjAb amplitudes:       0.000 (MW) /      0.000 (MB)
	Size of irrep 7 of tIjAb amplitudes:       0.000 (MW) /      0.000 (MB)
	Total:                                     0.000 (MW) /      0.002 (MB)


	Sorting File: A <IJ|KL> nbuckets = 1
	Sorting File: B <AB|CD> nbuckets = 1
	Sorting File: C <IA|JB> nbuckets = 1
	Sorting File: D <IJ|AB> nbuckets = 1
	Sorting File: E <AI|JK> nbuckets = 1
	Sorting File: F <IA|BC> nbuckets = 1
	Sorting File: F <AI|BC> nbuckets = 1
	Sorting File: A <ij|kl> nbuckets = 1
	Sorting File: B <ab|cd> nbuckets = 1
	Sorting File: C <ia|jb> nbuckets = 1
	Sorting File: D <ij|ab> nbuckets = 1
	Sorting File: E <ai|jk> nbuckets = 1
	Sorting File: F <ia|bc> nbuckets = 1
	Sorting File: F <ai|bc> nbuckets = 1
	Sorting File: A <Ij|Kl> nbuckets = 1
	Sorting File: B <Ab|Cd> nbuckets = 1
	Sorting File: C <Ia|Jb> nbuckets = 1
	Sorting File: C <Ai|Bj> nbuckets = 1
	Sorting File: D <Ij|Ab> nbuckets = 1
	Sorting File: E <Ai|Jk> nbuckets = 1
	Sorting File: E <Ij|Ka> nbuckets = 1
	Sorting File: F <Ia|Bc> nbuckets = 1
	Sorting File: F <aI|bC> nbuckets = 1
	Sorting File: F <Ab|Ci> nbuckets = 1
	Sorting File: F <Ai|Bc> nbuckets = 1
	One-electron energy          =   -182.61610028635894
	Two-electron (AA) energy     =     10.50044362892782
	Two-electron (BB) energy     =     10.50044362892782
	Two-electron (AB) energy     =     33.12643747676263
	Two-electron energy          =     54.12732473461826
	Frozen-core energy (transqt) =      0.00000000000000
	Reference energy             =   -128.48877555174067

*** tstop() called on cx1-12-3-10.cx1.hpc.ic.ac.uk at Mon Dec  2 14:11:37 2013
Module time:
	user time   =       0.04 seconds =       0.00 minutes
	system time =       0.06 seconds =       0.00 minutes
	total time  =         79 seconds =       1.32 minutes
Total time:
	user time   =       0.22 seconds =       0.00 minutes
	system time =       0.09 seconds =       0.00 minutes
	total time  =        155 seconds =       2.58 minutes

*** tstart() called on cx1-12-3-10.cx1.hpc.ic.ac.uk
*** at Mon Dec  2 14:11:39 2013

			**************************
			*                        *
			*        CCENERGY        *
			*                        *
			**************************

	Nuclear Rep. energy (chkpt)   =    0.000000000000000
	SCF energy          (chkpt)   = -128.488775551740673
	Reference energy    (file100) = -128.488775551740673

	Input parameters:
	-----------------
	Wave function   =   CCSD_T
	Reference wfn   =     UHF
	Memory (Mbytes) =     2000.0
	Maxiter         =     50
	R_Convergence   =     1.0e-07
	E_Convergence   =     1.0e-06
	Restart         =     No
	DIIS            =     Yes
	AO Basis        =     NONE
	ABCD            =     NEW
	Cache Level     =     2
	Cache Type      =     LRU
	Print Level     =     1
	Num. of threads =     1
	# Amps to Print =     10
	Print MP2 Amps? =     No
	Analyze T2 Amps =     No
	Print Pair Ener =     No
	Local CC        =     No
	SCS-MP2         =     False
	SCSN-MP2        =     False
	SCS-CCSD        =     False

	            Solving CC Amplitude Equations
	            ------------------------------
  Iter             Energy              RMS        T1Diag      D1Diag    New D1Diag    D2Diag
  ----     ---------------------    ---------   ----------  ----------  ----------   --------
     0        -0.187567184960364    0.000e+00    0.000000    0.000000    0.000000    0.000000
     1        -0.189274279077754    1.699e-02    0.003251    0.000000    0.000000    0.000000
     2        -0.190632341878288    3.643e-03    0.002913    0.000000    0.000000    0.000000
     3        -0.190868283577454    9.928e-04    0.003003    0.000000    0.000000    0.000000
     4        -0.190861226357916    8.861e-05    0.003001    0.000000    0.000000    0.000000
     5        -0.190861373752551    5.204e-06    0.003001    0.000000    0.000000    0.000000
     6        -0.190861377338089    8.908e-07    0.003001    0.000000    0.000000    0.000000
     7        -0.190861375462394    5.966e-08    0.003001    0.000000    0.000000    0.000000

	Iterations converged.


	Largest TIA Amplitudes:
	          2   6        -0.0036094758
	          3   7        -0.0036094758
	          4   8        -0.0036094758
	          1   0        -0.0024345607
	          0   0         0.0001157523

	Largest Tia Amplitudes:
	          2   6        -0.0036094758
	          3   7        -0.0036094758
	          4   8        -0.0036094758
	          1   0        -0.0024345607
	          0   0         0.0001157523

	Largest TIJAB Amplitudes:
	  4   3   8   7        -0.0231830305
	  4   2   8   6        -0.0231830305
	  3   2   7   6        -0.0231830305
	  4   3   3   1         0.0146430996
	  4   2   4   2        -0.0126812962
	  3   2   5   2        -0.0126812962
	  2   1   6   0        -0.0126397017
	  3   1   7   0        -0.0126397017
	  4   1   8   0        -0.0126397017
	  4   3   5   4         0.0073215498

	Largest Tijab Amplitudes:
	  4   3   8   7        -0.0231830305
	  4   2   8   6        -0.0231830305
	  3   2   7   6        -0.0231830305
	  4   3   3   1         0.0146430996
	  4   2   4   2        -0.0126812962
	  3   2   5   2        -0.0126812962
	  2   1   6   0        -0.0126397017
	  3   1   7   0        -0.0126397017
	  4   1   8   0        -0.0126397017
	  4   3   5   4         0.0073215498

	Largest TIjAb Amplitudes:
	  2   2   6   6        -0.0420933821
	  3   3   7   7        -0.0420933821
	  4   4   8   8        -0.0420933821
	  3   4   7   8        -0.0303405768
	  4   3   8   7        -0.0303405768
	  2   4   6   8        -0.0303405768
	  4   2   8   6        -0.0303405768
	  2   3   6   7        -0.0303405768
	  3   2   7   6        -0.0303405768
	  1   2   0   6        -0.0238471410

	SCF energy       (chkpt)              = -128.488775551740673
	Reference energy (file100)            = -128.488775551740673

	Opposite-spin MP2 correlation energy  =   -0.136008917248483
	Same-spin MP2 correlation energy      =   -0.051558267711881
	MP2 correlation energy                =   -0.187567184960364
      * MP2 total energy                      = -128.676342736701031

	Opposite-spin CCSD correlation energy =   -0.143467721399639
	Same-spin CCSD correlation energy     =   -0.047393654052970
	CCSD correlation energy               =   -0.190861375462394
      * CCSD total energy                     = -128.679636927203063


*** tstop() called on cx1-12-3-10.cx1.hpc.ic.ac.uk at Mon Dec  2 14:16:30 2013
Module time:
	user time   =       0.17 seconds =       0.00 minutes
	system time =       0.26 seconds =       0.00 minutes
	total time  =        291 seconds =       4.85 minutes
Total time:
	user time   =       0.39 seconds =       0.01 minutes
	system time =       0.35 seconds =       0.01 minutes
	total time  =        448 seconds =       7.47 minutes

*** tstart() called on cx1-12-3-10.cx1.hpc.ic.ac.uk
*** at Mon Dec  2 14:16:30 2013

			**************************
			*                        *
			*        CCTRIPLES       *
			*                        *
			**************************


	Wave function   =    CCSD_T
	Reference wfn   =      UHF

	Nuclear Rep. energy (chkpt)   =    0.000000000000000
	SCF energy          (chkpt)   = -128.488775551740673
	Reference energy    (file100) = -128.488775551740673
	CCSD energy         (file100) =   -0.190861375462394
	Total CCSD energy   (file100) = -128.679636927203063

	Number of ijk index combinations:
	Spin Case AAA: 10
	Spin Case BBB: 10
	Spin Case AAB: 50
	Spin Case ABB: 50
	AAA (T) energy                =   -0.000025253917493
	BBB (T) energy                =   -0.000025253917493
	AAB (T) energy                =   -0.000502714777336
	ABB (T) energy                =   -0.000502714777336
	(T) energy                    =   -0.001055937389659
      * CCSD(T) total energy          = -128.680692864592714


*** tstop() called on cx1-12-3-10.cx1.hpc.ic.ac.uk at Mon Dec  2 14:18:14 2013
Module time:
	user time   =       0.03 seconds =       0.00 minutes
	system time =       0.05 seconds =       0.00 minutes
	total time  =        104 seconds =       1.73 minutes
Total time:
	user time   =       0.42 seconds =       0.01 minutes
	system time =       0.40 seconds =       0.01 minutes
	total time  =        552 seconds =       9.20 minutes

*** PSI4 exiting successfully. Buy a developer a beer!
