    -----------------------------------------------------------------------
          PSI4: An Open-Source Ab Initio Electronic Structure Package
                              PSI 4.0.0-beta5+ Driver

               Git: Rev {master} eab4c2bf53d0cfe2fa7ff775dfb81b740d89e238

    J. M. Turney, A. C. Simmonett, R. M. Parrish, E. G. Hohenstein,
    F. A. Evangelista, J. T. Fermann, B. J. Mintz, L. A. Burns, J. J. Wilke,
    M. L. Abrams, N. J. Russ, M. L. Leininger, C. L. Janssen, E. T. Seidl,
    W. D. Allen, H. F. Schaefer, R. A. King, E. F. Valeev, C. D. Sherrill,
    and T. D. Crawford, WIREs Comput. Mol. Sci. 2, 556-565 (2012)
    (doi: 10.1002/wcms.93)

                         Additional Contributions by
    A. E. DePrince, M. Saitow, U. Bozkaya, A. Yu. Sokolov
    -----------------------------------------------------------------------

    Process ID:  18719
    PSI4DATADIR: /home/wv111/local/share/psi/

    Using LocalCommunicator (Number of processes = 1)

    Memory level set to 256.000 MB

  ==> Input File <==

--------------------------------------------------------------------------
memory 3000 mb

molecule dimer {
  Ne
}


set basis cc-pVDZ
set reference uhf

# Initialize a blank dictionary of counterpoise corrected energies
# (Need this for the syntax below to work)
ecp = {}
energy('mp2')
--------------------------------------------------------------------------

  Memory set to   3.000 GiB by Python script.

  No DF_BASIS_SCF auxiliary basis selected, defaulting to cc-pvdz-jkfit


*** tstart() called on cx1-12-6-9.cx1.hpc.ic.ac.uk
*** at Wed Feb  5 14:32:24 2014

	There are an even number of electrons - assuming singlet.
	Specify the multiplicity with the MULTP option in the
	input if this is incorrect


         ---------------------------------------------------------
                                   SCF
            by Justin Turney, Rob Parrish, and Andy Simmonett
                              UHF Reference
                        1 Threads,   3000 MiB Core
         ---------------------------------------------------------

  ==> Geometry <==

    Molecular point group: d2h
    Geometry (in Angstrom), charge = 0, multiplicity = 1:

       Center              X                  Y                   Z       
    ------------   -----------------  -----------------  -----------------
          NE          0.000000000000     0.000000000000     0.000000000000

  Running in d2h symmetry.


	Rotational constants (cm^-1):
	A = **********    B = **********    C = **********  

	Rotational constants (MHz):
	A = **********    B = **********    C = **********  
  Nuclear repulsion =    0.000000000000000

  Charge       = 0
  Multiplicity = 1
  Electrons    = 10
  Nalpha       = 5
  Nbeta        = 5

  ==> Algorithm <==

  SCF Algorithm Type is DF.
  DIIS enabled.
  MOM disabled.
  Fractional occupation disabled.
  Guess Type is CORE.
  Energy threshold   = 1.00e-08
  Density threshold  = 1.00e-08
  Integral threshold = 0.00e+00

  ==> Primary Basis <==

  Basis Set: CC-PVDZ
    Number of shells: 6
    Number of basis function: 14
    Number of Cartesian functions: 15
    Spherical Harmonics?: true
    Max angular momentum: 2

  ==> Pre-Iterations <==

   -------------------------------------------------------
    Irrep   Nso     Nmo     Nalpha   Nbeta   Ndocc  Nsocc
   -------------------------------------------------------
     Ag         5       5       0       0       0       0
     B1g        1       1       0       0       0       0
     B2g        1       1       0       0       0       0
     B3g        1       1       0       0       0       0
     Au         0       0       0       0       0       0
     B1u        2       2       0       0       0       0
     B2u        2       2       0       0       0       0
     B3u        2       2       0       0       0       0
   -------------------------------------------------------
    Total      14      14       5       5       5       0
   -------------------------------------------------------

 OEINTS: Wrapper to libmints.
   by Justin Turney

   Calculation information:
      Number of atoms:                   1
      Number of AO shells:               6
      Number of SO shells:               6
      Number of primitives:             22
      Number of atomic orbitals:        15
      Number of basis functions:        14

      Number of irreps:                  8
      Number of functions per irrep: [   5    1    1    1    0    2    2    2 ]

      Overlap, kinetic, potential, dipole, and quadrupole integrals
        stored in file 35.

  ==> Integral Setup <==

  ==> DFJK: Density-Fitted J/K Matrices <==

    J tasked:                  Yes
    K tasked:                  Yes
    wK tasked:                  No
    OpenMP threads:              1
    Integrals threads:           1
    Memory (MB):              2145
    Algorithm:                Core
    Integral Cache:           NONE
    Schwarz Cutoff:          1E-12
    Fitting Condition:       1E-12

   => Auxiliary Basis Set <=

  Basis Set: cc-pvdz-jkfit
    Number of shells: 24
    Number of basis function: 70
    Number of Cartesian functions: 81
    Spherical Harmonics?: true
    Max angular momentum: 3

  Minimum eigenvalue in the overlap matrix is 1.9330486283E-01.
  Using Symmetric Orthogonalization.
  SCF Guess: Core (One-Electron) Hamiltonian.

  ==> Iterations <==

                           Total Energy        Delta E     RMS |[F,P]|

   @DF-UHF iter   1:  -122.77299660256577   -1.22773e+02   5.12050e-01 
   @DF-UHF iter   2:  -127.36748844384414   -4.59449e+00   3.37057e-01 DIIS
   @DF-UHF iter   3:  -128.48680374857301   -1.11932e+00   1.37187e-02 DIIS
   @DF-UHF iter   4:  -128.48873838767653   -1.93464e-03   2.89397e-03 DIIS
   @DF-UHF iter   5:  -128.48879298914659   -5.46015e-05   6.98271e-04 DIIS
   @DF-UHF iter   6:  -128.48879661006694   -3.62092e-06   4.95326e-06 DIIS
   @DF-UHF iter   7:  -128.48879661029596   -2.29022e-10   1.64551e-07 DIIS
   @DF-UHF iter   8:  -128.48879661029613   -1.70530e-13   3.80094e-09 DIIS

  ==> Post-Iterations <==

   @Spin Contamination Metric:   3.552713679E-15
   @S^2 Expected:                0.000000000E+00
   @S^2 Observed:                3.552713679E-15
   @S   Expected:                0.000000000E+00
   @S   Observed:                0.000000000E+00

	Orbital Energies (a.u.)
	-----------------------

	Alpha Occupied:                                                       

	   1Ag   -32.765665     2Ag    -1.918810     1B3u   -0.832115  
	   1B1u   -0.832115     1B2u   -0.832115  

	Alpha Virtual:                                                        

	   2B1u    1.694660     2B3u    1.694660     2B2u    1.694660  
	   3Ag     2.159507     1B1g    5.197106     4Ag     5.197106  
	   5Ag     5.197106     1B2g    5.197106     1B3g    5.197106  

	Beta Occupied:                                                        

	   1Ag   -32.765665     2Ag    -1.918810     1B3u   -0.832115  
	   1B1u   -0.832115     1B2u   -0.832115  

	Beta Virtual:                                                         

	   2B1u    1.694660     2B3u    1.694660     2B2u    1.694660  
	   3Ag     2.159507     1B1g    5.197106     4Ag     5.197106  
	   5Ag     5.197106     1B2g    5.197106     1B3g    5.197106  

	Final Occupation by Irrep:
	         Ag   B1g   B2g   B3g    Au   B1u   B2u   B3u 
	DOCC [     2,    0,    0,    0,    0,    1,    1,    1 ]
	SOCC [     0,    0,    0,    0,    0,    0,    0,    0 ]

  Energy converged.

  @DF-UHF Final Energy:  -128.48879661029613

   => Energetics <=

    Nuclear Repulsion Energy =              0.0000000000000000
    One-Electron Energy =                -182.6159553194615910
    Two-Electron Energy =                  54.1271587091654567
    DFT Exchange-Correlation Energy =       0.0000000000000000
    Empirical Dispersion Energy =           0.0000000000000000
    Total Energy =                       -128.4887966102961343



Properties will be evaluated at   0.000000,   0.000000,   0.000000 Bohr
  ==> Properties <==


Properties computed using the SCF density density matrix
  Nuclear Dipole Moment: (a.u.)
     X:     0.0000      Y:     0.0000      Z:     0.0000

  Electronic Dipole Moment: (a.u.)
     X:     0.0000      Y:     0.0000      Z:     0.0000

  Dipole Moment: (a.u.)
     X:     0.0000      Y:     0.0000      Z:     0.0000     Total:     0.0000

  Dipole Moment: (Debye)
     X:     0.0000      Y:     0.0000      Z:     0.0000     Total:     0.0000


  Saving occupied orbitals to File 180.

*** tstop() called on cx1-12-6-9.cx1.hpc.ic.ac.uk at Wed Feb  5 14:32:25 2014
Module time:
	user time   =       0.13 seconds =       0.00 minutes
	system time =       0.01 seconds =       0.00 minutes
	total time  =          1 seconds =       0.02 minutes
Total time:
	user time   =       0.13 seconds =       0.00 minutes
	system time =       0.01 seconds =       0.00 minutes
	total time  =          1 seconds =       0.02 minutes

  //>>>>>>>>>>>>>>>>>>>>>>>>>>>>>>>>>>>//
  //               DFMP2               //
  //<<<<<<<<<<<<<<<<<<<<<<<<<<<<<<<<<<<//

  No DF_BASIS_MP2 auxiliary basis selected, defaulting to cc-pvdz-ri

*** tstart() called on cx1-12-6-9.cx1.hpc.ic.ac.uk
*** at Wed Feb  5 14:32:25 2014

	 --------------------------------------------------------
	                          DF-MP2                         
	      2nd-Order Density-Fitted Moller-Plesset Theory     
	              UMP2 Wavefunction,   1 Threads             
	                                                         
	        Rob Parrish, Justin Turney, Andy Simmonett,      
	           Ed Hohenstein, and C. David Sherrill          
	 --------------------------------------------------------

	 --------------------------------------------------------
	                 NBF =    14, NAUX =    56
	 --------------------------------------------------------
	   CLASS    FOCC     OCC    AOCC    AVIR     VIR    FVIR
	   ALPHA       0       5       5       9       9       0
	    BETA       0       5       5       9       9       0
	 --------------------------------------------------------

	----------------------------------------------------------
	 ==================> DF-MP2 Energies <=================== 
	----------------------------------------------------------
	 Reference Energy          =    -128.4887966102961343 [H]
	 Singles Energy            =      -0.0000000000000000 [H]
	 Same-Spin Energy          =      -0.0515581170495575 [H]
	 Opposite-Spin Energy      =      -0.1359986877719555 [H]
	 Correlation Energy        =      -0.1875568048215131 [H]
	 Total Energy              =    -128.6763534151176600 [H]
	----------------------------------------------------------
	 ================> DF-SCS-MP2 Energies <================= 
	----------------------------------------------------------
	 SCS Same-Spin Scale       =       0.3333333333333333 [-]
	 SCS Opposite-Spin Scale   =       1.2000000000000000 [-]
	 SCS Same-Spin Energy      =      -0.0171860390165192 [H]
	 SCS Opposite-Spin Energy  =      -0.1631984253263466 [H]
	 SCS Correlation Energy    =      -0.1803844643428658 [H]
	 SCS Total Energy          =    -128.6691810746389990 [H]
	----------------------------------------------------------


*** tstop() called on cx1-12-6-9.cx1.hpc.ic.ac.uk at Wed Feb  5 14:32:25 2014
Module time:
	user time   =       0.11 seconds =       0.00 minutes
	system time =       0.00 seconds =       0.00 minutes
	total time  =          0 seconds =       0.00 minutes
Total time:
	user time   =       0.24 seconds =       0.00 minutes
	system time =       0.01 seconds =       0.00 minutes
	total time  =          1 seconds =       0.02 minutes

*** PSI4 exiting successfully. Buy a developer a beer!
