    -----------------------------------------------------------------------
          PSI4: An Open-Source Ab Initio Electronic Structure Package
                              PSI 4.0.0-beta5+ Driver

               Git: Rev {master} eab4c2bf53d0cfe2fa7ff775dfb81b740d89e238

    J. M. Turney, A. C. Simmonett, R. M. Parrish, E. G. Hohenstein,
    F. A. Evangelista, J. T. Fermann, B. J. Mintz, L. A. Burns, J. J. Wilke,
    M. L. Abrams, N. J. Russ, M. L. Leininger, C. L. Janssen, E. T. Seidl,
    W. D. Allen, H. F. Schaefer, R. A. King, E. F. Valeev, C. D. Sherrill,
    and T. D. Crawford, WIREs Comput. Mol. Sci. 2, 556-565 (2012)
    (doi: 10.1002/wcms.93)

                         Additional Contributions by
    A. E. DePrince, M. Saitow, U. Bozkaya, A. Yu. Sokolov
    -----------------------------------------------------------------------

    Process ID:  30107
    PSI4DATADIR: /home/wv111/local/share/psi/

    Using LocalCommunicator (Number of processes = 1)

    Memory level set to 256.000 MB

  ==> Input File <==

--------------------------------------------------------------------------
#! Example potential energy surface scan and CP-correction for Ne2

memory 2000 mb

molecule dimer {
  Ne
  Ne 1 R
}

set basis cc-pVDZ
set reference uhf

for r in [2.30, 2.35, 2.40, 2.45, 2.50, 2.55, 2.60, 2.65, 2.70, 2.75, 2.80, 2.95, 3.00, 3.05, 3.10, 3.15, 3.20, 3.25, 3.30, 3.35] :
    dimer.R = r
    energy('ccsd(t)')
--------------------------------------------------------------------------

  Memory set to   2.000 GiB by Python script.
Setting geometry variable R to 2.300000

*** tstart() called on cx1-15-5-2.cx1.hpc.ic.ac.uk
*** at Thu Dec  5 15:49:54 2013

	There are an even number of electrons - assuming singlet.
	Specify the multiplicity with the MULTP option in the
	input if this is incorrect


         ---------------------------------------------------------
                                   SCF
            by Justin Turney, Rob Parrish, and Andy Simmonett
                              UHF Reference
                        1 Threads,   2000 MiB Core
         ---------------------------------------------------------

  ==> Geometry <==

    Molecular point group: d2h
    Full point group: D_inf_h

    Geometry (in Angstrom), charge = 0, multiplicity = 1:

       Center              X                  Y                   Z       
    ------------   -----------------  -----------------  -----------------
          NE          0.000000000000     0.000000000000    -1.150000000000
          NE          0.000000000000     0.000000000000     1.150000000000

  Running in d2h symmetry.


	Rotational constants (cm^-1):
	A = **********    B =    0.31879   C =    0.31879

	Rotational constants (MHz):
	A = **********    B = 9557.09085   C = 9557.09085
  Nuclear repulsion =   23.007704721304350

  Charge       = 0
  Multiplicity = 1
  Electrons    = 20
  Nalpha       = 10
  Nbeta        = 10

  ==> Algorithm <==

  SCF Algorithm Type is PK.
  DIIS enabled.
  MOM disabled.
  Fractional occupation disabled.
  Guess Type is CORE.
  Energy threshold   = 1.00e-08
  Density threshold  = 1.00e-08
  Integral threshold = 0.00e+00

  ==> Primary Basis <==

  Basis Set: CC-PVDZ
    Number of shells: 12
    Number of basis function: 28
    Number of Cartesian functions: 30
    Spherical Harmonics?: true
    Max angular momentum: 2

  ==> Pre-Iterations <==

   -------------------------------------------------------
    Irrep   Nso     Nmo     Nalpha   Nbeta   Ndocc  Nsocc
   -------------------------------------------------------
     Ag         7       7       0       0       0       0
     B1g        1       1       0       0       0       0
     B2g        3       3       0       0       0       0
     B3g        3       3       0       0       0       0
     Au         1       1       0       0       0       0
     B1u        7       7       0       0       0       0
     B2u        3       3       0       0       0       0
     B3u        3       3       0       0       0       0
   -------------------------------------------------------
    Total      28      28      10      10      10       0
   -------------------------------------------------------

  Starting with a DF guess...

 OEINTS: Wrapper to libmints.
   by Justin Turney

   Calculation information:
      Number of atoms:                   2
      Number of AO shells:              12
      Number of SO shells:               6
      Number of primitives:             44
      Number of atomic orbitals:        30
      Number of basis functions:        28

      Number of irreps:                  8
      Number of functions per irrep: [   7    1    3    3    1    7    3    3 ]

      Overlap, kinetic, potential, dipole, and quadrupole integrals
        stored in file 35.

  ==> Integral Setup <==

  ==> DFJK: Density-Fitted J/K Matrices <==

    J tasked:                  Yes
    K tasked:                  Yes
    wK tasked:                  No
    OpenMP threads:              1
    Integrals threads:           1
    Memory (MB):              1430
    Algorithm:                Core
    Integral Cache:           NONE
    Schwarz Cutoff:          1E-12
    Fitting Condition:       1E-12

   => Auxiliary Basis Set <=

  Basis Set: CC-PVDZ-JKFIT
    Number of shells: 48
    Number of basis function: 140
    Number of Cartesian functions: 162
    Spherical Harmonics?: true
    Max angular momentum: 3

  Minimum eigenvalue in the overlap matrix is 1.8821278822E-01.
  Using Symmetric Orthogonalization.
  SCF Guess: Core (One-Electron) Hamiltonian.

  ==> Iterations <==

                           Total Energy        Delta E     RMS |[F,P]|

   @DF-UHF iter   1:  -245.50361348844601   -2.45504e+02   3.96052e-01 
   @DF-UHF iter   2:  -254.75058359636361   -9.24697e+00   2.57464e-01 DIIS
   @DF-UHF iter   3:  -256.97172630560556   -2.22114e+00   1.02482e-02 DIIS
   @DF-UHF iter   4:  -256.97544138025876   -3.71507e-03   1.90423e-03 DIIS
   @DF-UHF iter   5:  -256.97552218017313   -8.07999e-05   3.87201e-04 DIIS
   @DF-UHF iter   6:  -256.97552605536328   -3.87519e-06   1.40860e-05 DIIS
   @DF-UHF iter   7:  -256.97552605978740   -4.42412e-09   5.25155e-07 DIIS
   @DF-UHF iter   8:  -256.97552605980559   -1.81899e-11   7.94184e-08 DIIS
   @DF-UHF iter   9:  -256.97552605980593   -3.41061e-13   1.33474e-08 DIIS
   @DF-UHF iter  10:  -256.97552605980593    0.00000e+00   2.10104e-09 DIIS

  DF guess converged.

  ==> Integral Setup <==

 MINTS: Wrapper to libmints.
   by Justin Turney

   Calculation information:
      Number of atoms:                   2
      Number of AO shells:              12
      Number of SO shells:               6
      Number of primitives:             44
      Number of atomic orbitals:        30
      Number of basis functions:        28

      Number of irreps:                  8
      Integral cutoff                 0.00e+00
      Number of functions per irrep: [   7    1    3    3    1    7    3    3 ]

      Overlap, kinetic, potential, dipole, and quadrupole integrals
        stored in file 35.

      Computing two-electron integrals...done
      Computed 10741 non-zero two-electron integrals.
        Stored in file 33.

	Batch   1 pq = [       0,      82] index = [             0,3403]
  ==> DiskJK: Disk-Based J/K Matrices <==

    J tasked:                  Yes
    K tasked:                  Yes
    wK tasked:                  No
    Memory (MB):              1430
    Schwarz Cutoff:          1E-12

   @UHF iter  11:  -256.97553731978314   -1.12600e-05   7.80532e-06 DIIS
   @UHF iter  12:  -256.97553732303891   -3.25576e-09   1.98618e-06 DIIS
   @UHF iter  13:  -256.97553732329766   -2.58751e-10   4.31226e-07 DIIS
   @UHF iter  14:  -256.97553732330641   -8.75389e-12   1.08740e-07 DIIS
   @UHF iter  15:  -256.97553732330698   -5.68434e-13   1.19079e-08 DIIS
   @UHF iter  16:  -256.97553732330687    1.13687e-13   1.05038e-09 DIIS

  ==> Post-Iterations <==

   @Spin Contamination Metric:  -1.243449788E-14
   @S^2 Expected:                0.000000000E+00
   @S^2 Observed:               -1.243449788E-14
   @S   Expected:                0.000000000E+00
   @S   Observed:                0.000000000E+00

	Orbital Energies (a.u.)
	-----------------------

	Alpha Occupied:                                                       

	   1B1u  -32.764404     1Ag   -32.764395     2Ag    -1.922803  
	   2B1u   -1.914154     3Ag    -0.854822     1B3u   -0.835381  
	   1B2u   -0.835381     1B2g   -0.827812     1B3g   -0.827812  
	   3B1u   -0.808381  

	Alpha Virtual:                                                        

	   4Ag     1.512742     2B3u    1.656835     2B2u    1.656835  
	   2B2g    1.734470     2B3g    1.734470     4B1u    1.869159  
	   5Ag     2.122381     5B1u    2.304074     6B1u    5.197126  
	   1Au     5.197126     6Ag     5.197141     1B1g    5.197141  
	   3B2g    5.197148     3B3g    5.197148     3B3u    5.197151  
	   3B2u    5.197151     7Ag     5.197965     7B1u    5.199104  

	Beta Occupied:                                                        

	   1B1u  -32.764404     1Ag   -32.764395     2Ag    -1.922803  
	   2B1u   -1.914154     3Ag    -0.854822     1B3u   -0.835381  
	   1B2u   -0.835381     1B2g   -0.827812     1B3g   -0.827812  
	   3B1u   -0.808381  

	Beta Virtual:                                                         

	   4Ag     1.512742     2B3u    1.656835     2B2u    1.656835  
	   2B2g    1.734470     2B3g    1.734470     4B1u    1.869159  
	   5Ag     2.122381     5B1u    2.304074     6B1u    5.197126  
	   1Au     5.197126     6Ag     5.197141     1B1g    5.197141  
	   3B2g    5.197148     3B3g    5.197148     3B3u    5.197151  
	   3B2u    5.197151     7Ag     5.197965     7B1u    5.199104  

	Final Occupation by Irrep:
	         Ag   B1g   B2g   B3g    Au   B1u   B2u   B3u 
	DOCC [     3,    0,    1,    1,    0,    3,    1,    1 ]
	SOCC [     0,    0,    0,    0,    0,    0,    0,    0 ]

  Energy converged.

  @UHF Final Energy:  -256.97553732330687

   => Energetics <=

    Nuclear Repulsion Energy =             23.0077047213043500
    One-Electron Energy =                -411.2557953009465450
    Two-Electron Energy =                 131.2725532563353283
    DFT Exchange-Correlation Energy =       0.0000000000000000
    Empirical Dispersion Energy =           0.0000000000000000
    Total Energy =                       -256.9755373233068667



Properties will be evaluated at   0.000000,   0.000000,   0.000000 Bohr
  ==> Properties <==


Properties computed using the SCF density density matrix
  Nuclear Dipole Moment: (a.u.)
     X:     0.0000      Y:     0.0000      Z:     0.0000

  Electronic Dipole Moment: (a.u.)
     X:     0.0000      Y:     0.0000      Z:     0.0000

  Dipole Moment: (a.u.)
     X:     0.0000      Y:     0.0000      Z:     0.0000     Total:     0.0000

  Dipole Moment: (Debye)
     X:     0.0000      Y:     0.0000      Z:     0.0000     Total:     0.0000


  Saving occupied orbitals to File 180.

*** tstop() called on cx1-15-5-2.cx1.hpc.ic.ac.uk at Thu Dec  5 15:49:57 2013
Module time:
	user time   =       0.27 seconds =       0.00 minutes
	system time =       0.05 seconds =       0.00 minutes
	total time  =          3 seconds =       0.05 minutes
Total time:
	user time   =       0.27 seconds =       0.00 minutes
	system time =       0.05 seconds =       0.00 minutes
	total time  =          3 seconds =       0.05 minutes

*** tstart() called on cx1-15-5-2.cx1.hpc.ic.ac.uk
*** at Thu Dec  5 15:49:57 2013


	**************************************************
	* TRANSQT2: Program to transform integrals from  *
	*           the SO basis to the MO basis.        *
	*                                                *
	*            Daniel, David, & Justin             *
	**************************************************


	Input parameters:
	-----------------
	Wave function   =	CCSD_T
	Backtransform   =	No
	Print Level     =	1
	Print TEIs      =	No
	Reference wfn   =	UHF
	Derivative      =	None
	Delete TEI File =	Yes
	Memory (Mbytes) =	2000.0
	Cache Level     =	2
	Cache Type      =	LRU
	Chkpt Parameters:
	--------------------
	Number of irreps     = 8
	Number of SOs        = 28
	Number of MOs        = 28
	Number of active MOs = 28

	Label	# SOs	# FZDC	# DOCC	# SOCC	# VIRT	# FZVR
	-----	-----	------	------	------	------	------
	 Ag	   7	    0	    3	    0	    4	    0
	 B1g	   1	    0	    0	    0	    1	    0
	 B2g	   3	    0	    1	    0	    2	    0
	 B3g	   3	    0	    1	    0	    2	    0
	 Au	   1	    0	    0	    0	    1	    0
	 B1u	   7	    0	    3	    0	    4	    0
	 B2u	   3	    0	    1	    0	    2	    0
	 B3u	   3	    0	    1	    0	    2	    0

	Nuclear Rep. energy (chkpt) =     23.00770472130435
	SCF energy          (chkpt) =   -256.97553732330687

	Presorting SO-basis two-electron integrals.
	Sorting File: SO Ints (pq,rs) nbuckets = 1
	Frozen-core energy =    0.000000000000000
	Starting AA/AB first half-transformation.
	Sorting AA/AB half-transformed integrals.
	Starting AA second half-transformation.
	Starting AB second half-transformation.
	Starting BB first half-transformation.
	Sorting BB half-transformed integrals.
	Starting BB second half-transformation.
	Two-electron integral transformation complete.

*** tstop() called on cx1-15-5-2.cx1.hpc.ic.ac.uk at Thu Dec  5 15:49:58 2013
Module time:
	user time   =       0.03 seconds =       0.00 minutes
	system time =       0.03 seconds =       0.00 minutes
	total time  =          1 seconds =       0.02 minutes
Total time:
	user time   =       0.30 seconds =       0.01 minutes
	system time =       0.08 seconds =       0.00 minutes
	total time  =          4 seconds =       0.07 minutes

*** tstart() called on cx1-15-5-2.cx1.hpc.ic.ac.uk
*** at Thu Dec  5 15:49:58 2013


			**************************
			*                        *
			*         CCSORT         *
			*                        *
			**************************


	Input parameters:
	-----------------
	Wave function   =	CCSD_T
	Reference wfn   =	UHF
	Derivative      =	None
	Memory (Mbytes) =	2000.0
	AO Basis        =	NONE
	Make (ab|cd)    =	True
	Make unpacked (ab|cd) =	True
	Cache Level     =	2
	Cache Type      =	LRU
	Local CC        =     No


	Chkpt Parameters:
	--------------------
	Number of irreps     = 8
	Number of MOs        = 28
	Number of active MOs = 28

	Label	# MOs	# FZDC	# DOCC	# SOCC	# VIRT	# FZVR
	-----	-----	------	------	------	------	------
	 Ag	   7	    0	    3	    0	    4	    0
	 B1g	   1	    0	    0	    0	    1	    0
	 B2g	   3	    0	    1	    0	    2	    0
	 B3g	   3	    0	    1	    0	    2	    0
	 Au	   1	    0	    0	    0	    1	    0
	 B1u	   7	    0	    3	    0	    4	    0
	 B2u	   3	    0	    1	    0	    2	    0
	 B3u	   3	    0	    1	    0	    2	    0

	Nuclear Rep. energy (chkpt) =     23.00770472130435
	SCF energy          (chkpt) =   -256.97553732330687

	Size of irrep 0 of <AB|CD> integrals:      0.000 (MW) /      0.002 (MB)
	Size of irrep 1 of <AB|CD> integrals:      0.000 (MW) /      0.002 (MB)
	Size of irrep 2 of <AB|CD> integrals:      0.000 (MW) /      0.003 (MB)
	Size of irrep 3 of <AB|CD> integrals:      0.000 (MW) /      0.003 (MB)
	Size of irrep 4 of <AB|CD> integrals:      0.000 (MW) /      0.002 (MB)
	Size of irrep 5 of <AB|CD> integrals:      0.001 (MW) /      0.005 (MB)
	Size of irrep 6 of <AB|CD> integrals:      0.000 (MW) /      0.003 (MB)
	Size of irrep 7 of <AB|CD> integrals:      0.000 (MW) /      0.003 (MB)
	Total:                                     0.003 (MW) /      0.024 (MB)

	Size of irrep 0 of <ab|cd> integrals:      0.000 (MW) /      0.002 (MB)
	Size of irrep 1 of <ab|cd> integrals:      0.000 (MW) /      0.002 (MB)
	Size of irrep 2 of <ab|cd> integrals:      0.000 (MW) /      0.003 (MB)
	Size of irrep 3 of <ab|cd> integrals:      0.000 (MW) /      0.003 (MB)
	Size of irrep 4 of <ab|cd> integrals:      0.000 (MW) /      0.002 (MB)
	Size of irrep 5 of <ab|cd> integrals:      0.001 (MW) /      0.005 (MB)
	Size of irrep 6 of <ab|cd> integrals:      0.000 (MW) /      0.003 (MB)
	Size of irrep 7 of <ab|cd> integrals:      0.000 (MW) /      0.003 (MB)
	Total:                                     0.003 (MW) /      0.024 (MB)

	Size of irrep 0 of <Ab|Cd> integrals:      0.003 (MW) /      0.020 (MB)
	Size of irrep 1 of <Ab|Cd> integrals:      0.001 (MW) /      0.008 (MB)
	Size of irrep 2 of <Ab|Cd> integrals:      0.002 (MW) /      0.013 (MB)
	Size of irrep 3 of <Ab|Cd> integrals:      0.002 (MW) /      0.013 (MB)
	Size of irrep 4 of <Ab|Cd> integrals:      0.001 (MW) /      0.008 (MB)
	Size of irrep 5 of <Ab|Cd> integrals:      0.003 (MW) /      0.020 (MB)
	Size of irrep 6 of <Ab|Cd> integrals:      0.002 (MW) /      0.013 (MB)
	Size of irrep 7 of <Ab|Cd> integrals:      0.002 (MW) /      0.013 (MB)
	Total:                                     0.013 (MW) /      0.108 (MB)

	Size of irrep 0 of <IA|BC> integrals:      0.002 (MW) /      0.013 (MB)
	Size of irrep 1 of <IA|BC> integrals:      0.000 (MW) /      0.004 (MB)
	Size of irrep 2 of <IA|BC> integrals:      0.001 (MW) /      0.007 (MB)
	Size of irrep 3 of <IA|BC> integrals:      0.001 (MW) /      0.007 (MB)
	Size of irrep 4 of <IA|BC> integrals:      0.000 (MW) /      0.004 (MB)
	Size of irrep 5 of <IA|BC> integrals:      0.002 (MW) /      0.013 (MB)
	Size of irrep 6 of <IA|BC> integrals:      0.001 (MW) /      0.007 (MB)
	Size of irrep 7 of <IA|BC> integrals:      0.001 (MW) /      0.007 (MB)
	Total:                                     0.008 (MW) /      0.061 (MB)

	Size of irrep 0 of <ia|bc> integrals:      0.002 (MW) /      0.013 (MB)
	Size of irrep 1 of <ia|bc> integrals:      0.000 (MW) /      0.004 (MB)
	Size of irrep 2 of <ia|bc> integrals:      0.001 (MW) /      0.007 (MB)
	Size of irrep 3 of <ia|bc> integrals:      0.001 (MW) /      0.007 (MB)
	Size of irrep 4 of <ia|bc> integrals:      0.000 (MW) /      0.004 (MB)
	Size of irrep 5 of <ia|bc> integrals:      0.002 (MW) /      0.013 (MB)
	Size of irrep 6 of <ia|bc> integrals:      0.001 (MW) /      0.007 (MB)
	Size of irrep 7 of <ia|bc> integrals:      0.001 (MW) /      0.007 (MB)
	Total:                                     0.008 (MW) /      0.061 (MB)

	Size of irrep 0 of <Ia|Bc> integrals:      0.002 (MW) /      0.013 (MB)
	Size of irrep 1 of <Ia|Bc> integrals:      0.000 (MW) /      0.004 (MB)
	Size of irrep 2 of <Ia|Bc> integrals:      0.001 (MW) /      0.007 (MB)
	Size of irrep 3 of <Ia|Bc> integrals:      0.001 (MW) /      0.007 (MB)
	Size of irrep 4 of <Ia|Bc> integrals:      0.000 (MW) /      0.004 (MB)
	Size of irrep 5 of <Ia|Bc> integrals:      0.002 (MW) /      0.013 (MB)
	Size of irrep 6 of <Ia|Bc> integrals:      0.001 (MW) /      0.007 (MB)
	Size of irrep 7 of <Ia|Bc> integrals:      0.001 (MW) /      0.007 (MB)
	Total:                                     0.008 (MW) /      0.061 (MB)

	Size of irrep 0 of <iA|bC> integrals:      0.002 (MW) /      0.013 (MB)
	Size of irrep 1 of <iA|bC> integrals:      0.000 (MW) /      0.004 (MB)
	Size of irrep 2 of <iA|bC> integrals:      0.001 (MW) /      0.007 (MB)
	Size of irrep 3 of <iA|bC> integrals:      0.001 (MW) /      0.007 (MB)
	Size of irrep 4 of <iA|bC> integrals:      0.000 (MW) /      0.004 (MB)
	Size of irrep 5 of <iA|bC> integrals:      0.002 (MW) /      0.013 (MB)
	Size of irrep 6 of <iA|bC> integrals:      0.001 (MW) /      0.007 (MB)
	Size of irrep 7 of <iA|bC> integrals:      0.001 (MW) /      0.007 (MB)
	Total:                                     0.008 (MW) /      0.061 (MB)

	Size of irrep 0 of tIjAb amplitudes:       0.001 (MW) /      0.009 (MB)
	Size of irrep 1 of tIjAb amplitudes:       0.000 (MW) /      0.001 (MB)
	Size of irrep 2 of tIjAb amplitudes:       0.000 (MW) /      0.004 (MB)
	Size of irrep 3 of tIjAb amplitudes:       0.000 (MW) /      0.004 (MB)
	Size of irrep 4 of tIjAb amplitudes:       0.000 (MW) /      0.001 (MB)
	Size of irrep 5 of tIjAb amplitudes:       0.001 (MW) /      0.009 (MB)
	Size of irrep 6 of tIjAb amplitudes:       0.000 (MW) /      0.004 (MB)
	Size of irrep 7 of tIjAb amplitudes:       0.000 (MW) /      0.004 (MB)
	Total:                                     0.004 (MW) /      0.035 (MB)


	Sorting File: A <IJ|KL> nbuckets = 1
	Sorting File: B <AB|CD> nbuckets = 1
	Sorting File: C <IA|JB> nbuckets = 1
	Sorting File: D <IJ|AB> nbuckets = 1
	Sorting File: E <AI|JK> nbuckets = 1
	Sorting File: F <IA|BC> nbuckets = 1
	Sorting File: F <AI|BC> nbuckets = 1
	Sorting File: A <ij|kl> nbuckets = 1
	Sorting File: B <ab|cd> nbuckets = 1
	Sorting File: C <ia|jb> nbuckets = 1
	Sorting File: D <ij|ab> nbuckets = 1
	Sorting File: E <ai|jk> nbuckets = 1
	Sorting File: F <ia|bc> nbuckets = 1
	Sorting File: F <ai|bc> nbuckets = 1
	Sorting File: A <Ij|Kl> nbuckets = 1
	Sorting File: B <Ab|Cd> nbuckets = 1
	Sorting File: C <Ia|Jb> nbuckets = 1
	Sorting File: C <Ai|Bj> nbuckets = 1
	Sorting File: D <Ij|Ab> nbuckets = 1
	Sorting File: E <Ai|Jk> nbuckets = 1
	Sorting File: E <Ij|Ka> nbuckets = 1
	Sorting File: F <Ia|Bc> nbuckets = 1
	Sorting File: F <aI|bC> nbuckets = 1
	Sorting File: F <Ab|Ci> nbuckets = 1
	Sorting File: F <Ai|Bc> nbuckets = 1
	One-electron energy          =   -411.25579530057638
	Two-electron (AA) energy     =     26.75480598690369
	Two-electron (BB) energy     =     26.75480598690369
	Two-electron (AB) energy     =     77.76294128215775
	Two-electron energy          =    131.27255325596514
	Frozen-core energy (transqt) =      0.00000000000000
	Reference energy             =   -256.97553732330687

*** tstop() called on cx1-15-5-2.cx1.hpc.ic.ac.uk at Thu Dec  5 15:50:08 2013
Module time:
	user time   =       0.06 seconds =       0.00 minutes
	system time =       0.18 seconds =       0.00 minutes
	total time  =         10 seconds =       0.17 minutes
Total time:
	user time   =       0.36 seconds =       0.01 minutes
	system time =       0.26 seconds =       0.00 minutes
	total time  =         14 seconds =       0.23 minutes

*** tstart() called on cx1-15-5-2.cx1.hpc.ic.ac.uk
*** at Thu Dec  5 15:50:08 2013

			**************************
			*                        *
			*        CCENERGY        *
			*                        *
			**************************

	Nuclear Rep. energy (chkpt)   =   23.007704721304350
	SCF energy          (chkpt)   = -256.975537323306867
	Reference energy    (file100) = -256.975537323306867

	Input parameters:
	-----------------
	Wave function   =   CCSD_T
	Reference wfn   =     UHF
	Memory (Mbytes) =     2000.0
	Maxiter         =     50
	R_Convergence   =     1.0e-07
	E_Convergence   =     1.0e-06
	Restart         =     No
	DIIS            =     Yes
	AO Basis        =     NONE
	ABCD            =     NEW
	Cache Level     =     2
	Cache Type      =     LRU
	Print Level     =     1
	Num. of threads =     1
	# Amps to Print =     10
	Print MP2 Amps? =     No
	Analyze T2 Amps =     No
	Print Pair Ener =     No
	Local CC        =     No
	SCS-MP2         =     False
	SCSN-MP2        =     False
	SCS-CCSD        =     False

	            Solving CC Amplitude Equations
	            ------------------------------
  Iter             Energy              RMS        T1Diag      D1Diag    New D1Diag    D2Diag
  ----     ---------------------    ---------   ----------  ----------  ----------   --------
     0        -0.375372536061738    0.000e+00    0.000000    0.000000    0.000000    0.000000
     1        -0.378719032305197    2.437e-02    0.003364    0.000000    0.000000    0.000000
     2        -0.381455560353580    5.188e-03    0.003031    0.000000    0.000000    0.000000
     3        -0.381935075579414    1.435e-03    0.003133    0.000000    0.000000    0.000000
     4        -0.381921837760976    1.316e-04    0.003130    0.000000    0.000000    0.000000
     5        -0.381921462395813    1.356e-05    0.003130    0.000000    0.000000    0.000000
     6        -0.381921582529710    2.249e-06    0.003130    0.000000    0.000000    0.000000
     7        -0.381921579379339    4.182e-07    0.003130    0.000000    0.000000    0.000000
     8        -0.381921577347456    5.714e-08    0.003130    0.000000    0.000000    0.000000

	Iterations converged.


	Largest TIA Amplitudes:
	          2   0         0.0052786480
	          8  14        -0.0039020963
	          9  16        -0.0039020963
	          3   5        -0.0032976775
	          4   7        -0.0032976775
	          1   1        -0.0025303937
	          7  10         0.0022633833
	          6  11        -0.0018281652
	          6  10        -0.0013574927
	          1   0        -0.0010627135

	Largest Tia Amplitudes:
	          2   0         0.0052786480
	          8  14        -0.0039020963
	          9  16        -0.0039020963
	          3   5        -0.0032976775
	          4   7        -0.0032976775
	          1   1        -0.0025303937
	          7  10         0.0022633833
	          6  11        -0.0018281652
	          6  10        -0.0013574927
	          1   0        -0.0010627135

	Largest TIJAB Amplitudes:
	  7   4  14   0         0.0131296386
	  7   3  16   0         0.0131296386
	  9   7   5   0        -0.0124231063
	  8   7   7   0        -0.0124231063
	  4   3  16  14         0.0120654677
	  9   8  16  14        -0.0117921761
	  8   2  14   0         0.0117709496
	  9   2  16   0         0.0117709496
	  3   2   5   0         0.0116981847
	  4   2   7   0         0.0116981847

	Largest Tijab Amplitudes:
	  7   4  14   0         0.0131296386
	  7   3  16   0         0.0131296386
	  9   7   5   0        -0.0124231063
	  8   7   7   0        -0.0124231063
	  4   3  16  14         0.0120654677
	  9   8  16  14        -0.0117921761
	  8   2  14   0         0.0117709496
	  9   2  16   0         0.0117709496
	  3   2   5   0         0.0116981847
	  4   2   7   0         0.0116981847

	Largest TIjAb Amplitudes:
	  7   7   0   0        -0.0247062046
	  2   2   0   0        -0.0229221789
	  3   3  16  16        -0.0217044557
	  4   4  14  14        -0.0217044557
	  8   8  14  14        -0.0214417880
	  9   9  16  16        -0.0214417880
	  3   9   5  16        -0.0210982341
	  4   8   7  14        -0.0210982341
	  8   4  14   7        -0.0210982341
	  9   3  16   5        -0.0210982341

	SCF energy       (chkpt)              = -256.975537323306867
	Reference energy (file100)            = -256.975537323306867

	Opposite-spin MP2 correlation energy  =   -0.272134691345461
	Same-spin MP2 correlation energy      =   -0.103237844716277
	MP2 correlation energy                =   -0.375372536061738
      * MP2 total energy                      = -257.350909859368585

	Opposite-spin CCSD correlation energy =   -0.287011209561562
	Same-spin CCSD correlation energy     =   -0.094910367789287
	CCSD correlation energy               =   -0.381921577347456
      * CCSD total energy                     = -257.357458900654308


*** tstop() called on cx1-15-5-2.cx1.hpc.ic.ac.uk at Thu Dec  5 15:50:36 2013
Module time:
	user time   =       0.37 seconds =       0.01 minutes
	system time =       0.51 seconds =       0.01 minutes
	total time  =         28 seconds =       0.47 minutes
Total time:
	user time   =       0.74 seconds =       0.01 minutes
	system time =       0.77 seconds =       0.01 minutes
	total time  =         42 seconds =       0.70 minutes

*** tstart() called on cx1-15-5-2.cx1.hpc.ic.ac.uk
*** at Thu Dec  5 15:50:36 2013

			**************************
			*                        *
			*        CCTRIPLES       *
			*                        *
			**************************


	Wave function   =    CCSD_T
	Reference wfn   =      UHF

	Nuclear Rep. energy (chkpt)   =   23.007704721304350
	SCF energy          (chkpt)   = -256.975537323306867
	Reference energy    (file100) = -256.975537323306867
	CCSD energy         (file100) =   -0.381921577347456
	Total CCSD energy   (file100) = -257.357458900654308

	Number of ijk index combinations:
	Spin Case AAA: 120
	Spin Case BBB: 120
	Spin Case AAB: 450
	Spin Case ABB: 450
	AAA (T) energy                =   -0.000052015320753
	BBB (T) energy                =   -0.000052015320753
	AAB (T) energy                =   -0.001023857925301
	ABB (T) energy                =   -0.001023857925301
	(T) energy                    =   -0.002151746492107
      * CCSD(T) total energy          = -257.359610647146440


*** tstop() called on cx1-15-5-2.cx1.hpc.ic.ac.uk at Thu Dec  5 15:50:39 2013
Module time:
	user time   =       0.34 seconds =       0.01 minutes
	system time =       0.16 seconds =       0.00 minutes
	total time  =          3 seconds =       0.05 minutes
Total time:
	user time   =       1.08 seconds =       0.02 minutes
	system time =       0.93 seconds =       0.02 minutes
	total time  =         45 seconds =       0.75 minutes
Setting geometry variable R to 2.350000

*** tstart() called on cx1-15-5-2.cx1.hpc.ic.ac.uk
*** at Thu Dec  5 15:50:39 2013

	There are an even number of electrons - assuming singlet.
	Specify the multiplicity with the MULTP option in the
	input if this is incorrect


         ---------------------------------------------------------
                                   SCF
            by Justin Turney, Rob Parrish, and Andy Simmonett
                              UHF Reference
                        1 Threads,   2000 MiB Core
         ---------------------------------------------------------

  ==> Geometry <==

    Molecular point group: d2h
    Full point group: D_inf_h

    Geometry (in Angstrom), charge = 0, multiplicity = 1:

       Center              X                  Y                   Z       
    ------------   -----------------  -----------------  -----------------
          NE          0.000000000000     0.000000000000    -1.175000000000
          NE          0.000000000000     0.000000000000     1.175000000000

  Running in d2h symmetry.


	Rotational constants (cm^-1):
	A = **********    B =    0.30537   C =    0.30537

	Rotational constants (MHz):
	A = **********    B = 9154.73257   C = 9154.73257
  Nuclear repulsion =   22.518179088936161

  Charge       = 0
  Multiplicity = 1
  Electrons    = 20
  Nalpha       = 10
  Nbeta        = 10

  ==> Algorithm <==

  SCF Algorithm Type is PK.
  DIIS enabled.
  MOM disabled.
  Fractional occupation disabled.
  Guess Type is CORE.
  Energy threshold   = 1.00e-08
  Density threshold  = 1.00e-08
  Integral threshold = 0.00e+00

  ==> Primary Basis <==

  Basis Set: CC-PVDZ
    Number of shells: 12
    Number of basis function: 28
    Number of Cartesian functions: 30
    Spherical Harmonics?: true
    Max angular momentum: 2

  ==> Pre-Iterations <==

   -------------------------------------------------------
    Irrep   Nso     Nmo     Nalpha   Nbeta   Ndocc  Nsocc
   -------------------------------------------------------
     Ag         7       7       0       0       0       0
     B1g        1       1       0       0       0       0
     B2g        3       3       0       0       0       0
     B3g        3       3       0       0       0       0
     Au         1       1       0       0       0       0
     B1u        7       7       0       0       0       0
     B2u        3       3       0       0       0       0
     B3u        3       3       0       0       0       0
   -------------------------------------------------------
    Total      28      28      10      10      10       0
   -------------------------------------------------------

  Starting with a DF guess...

 OEINTS: Wrapper to libmints.
   by Justin Turney

   Calculation information:
      Number of atoms:                   2
      Number of AO shells:              12
      Number of SO shells:               6
      Number of primitives:             44
      Number of atomic orbitals:        30
      Number of basis functions:        28

      Number of irreps:                  8
      Number of functions per irrep: [   7    1    3    3    1    7    3    3 ]

      Overlap, kinetic, potential, dipole, and quadrupole integrals
        stored in file 35.

  ==> Integral Setup <==

  ==> DFJK: Density-Fitted J/K Matrices <==

    J tasked:                  Yes
    K tasked:                  Yes
    wK tasked:                  No
    OpenMP threads:              1
    Integrals threads:           1
    Memory (MB):              1430
    Algorithm:                Core
    Integral Cache:           NONE
    Schwarz Cutoff:          1E-12
    Fitting Condition:       1E-12

   => Auxiliary Basis Set <=

  Basis Set: CC-PVDZ-JKFIT
    Number of shells: 48
    Number of basis function: 140
    Number of Cartesian functions: 162
    Spherical Harmonics?: true
    Max angular momentum: 3

  Minimum eigenvalue in the overlap matrix is 1.8922050167E-01.
  Using Symmetric Orthogonalization.
  SCF Guess: Core (One-Electron) Hamiltonian.

  ==> Iterations <==

                           Total Energy        Delta E     RMS |[F,P]|

   @DF-UHF iter   1:  -245.50899953299432   -2.45509e+02   3.95602e-01 
   @DF-UHF iter   2:  -254.74710291690513   -9.23810e+00   2.57675e-01 DIIS
   @DF-UHF iter   3:  -256.97233424463468   -2.22523e+00   1.02801e-02 DIIS
   @DF-UHF iter   4:  -256.97606862219180   -3.73438e-03   1.92651e-03 DIIS
   @DF-UHF iter   5:  -256.97615127657156   -8.26544e-05   3.93567e-04 DIIS
   @DF-UHF iter   6:  -256.97615527600061   -3.99943e-06   1.38115e-05 DIIS
   @DF-UHF iter   7:  -256.97615528023067   -4.23006e-09   4.68652e-07 DIIS
   @DF-UHF iter   8:  -256.97615528024443   -1.37561e-11   7.54240e-08 DIIS
   @DF-UHF iter   9:  -256.97615528024471   -2.84217e-13   1.26634e-08 DIIS
   @DF-UHF iter  10:  -256.97615528024477   -5.68434e-14   2.10366e-09 DIIS

  DF guess converged.

  ==> Integral Setup <==

 MINTS: Wrapper to libmints.
   by Justin Turney

   Calculation information:
      Number of atoms:                   2
      Number of AO shells:              12
      Number of SO shells:               6
      Number of primitives:             44
      Number of atomic orbitals:        30
      Number of basis functions:        28

      Number of irreps:                  8
      Integral cutoff                 0.00e+00
      Number of functions per irrep: [   7    1    3    3    1    7    3    3 ]

      Overlap, kinetic, potential, dipole, and quadrupole integrals
        stored in file 35.

      Computing two-electron integrals...done
      Computed 10749 non-zero two-electron integrals.
        Stored in file 33.

	Batch   1 pq = [       0,      82] index = [             0,3403]
  ==> DiskJK: Disk-Based J/K Matrices <==

    J tasked:                  Yes
    K tasked:                  Yes
    wK tasked:                  No
    Memory (MB):              1430
    Schwarz Cutoff:          1E-12

   @UHF iter  11:  -256.97615684652072   -1.56628e-06   6.73691e-06 DIIS
   @UHF iter  12:  -256.97615684898119   -2.46047e-09   1.69248e-06 DIIS
   @UHF iter  13:  -256.97615684918054   -1.99350e-10   2.10331e-07 DIIS
   @UHF iter  14:  -256.97615684918384   -3.29692e-12   2.99751e-08 DIIS
   @UHF iter  15:  -256.97615684918384    0.00000e+00   9.03334e-09 DIIS

  ==> Post-Iterations <==

   @Spin Contamination Metric:  -3.552713679E-15
   @S^2 Expected:                0.000000000E+00
   @S^2 Observed:               -3.552713679E-15
   @S   Expected:                0.000000000E+00
   @S   Observed:                0.000000000E+00

	Orbital Energies (a.u.)
	-----------------------

	Alpha Occupied:                                                       

	   1B1u  -32.764748     1Ag   -32.764741     2Ag    -1.922203  
	   2B1u   -1.914943     3Ag    -0.852319     1B3u   -0.834988  
	   1B2u   -0.834988     1B2g   -0.828502     1B3g   -0.828502  
	   3B1u   -0.811125  

	Alpha Virtual:                                                        

	   4Ag     1.521130     2B3u    1.661355     2B2u    1.661355  
	   2B2g    1.729361     2B3g    1.729361     4B1u    1.862972  
	   5Ag     2.126172     5B1u    2.278125     6B1u    5.196994  
	   1Au     5.196994     6Ag     5.197006     1B1g    5.197006  
	   3B2g    5.197009     3B3g    5.197009     3B3u    5.197021  
	   3B2u    5.197021     7Ag     5.197572     7B1u    5.198292  

	Beta Occupied:                                                        

	   1B1u  -32.764748     1Ag   -32.764741     2Ag    -1.922203  
	   2B1u   -1.914943     3Ag    -0.852319     1B3u   -0.834988  
	   1B2u   -0.834988     1B2g   -0.828502     1B3g   -0.828502  
	   3B1u   -0.811125  

	Beta Virtual:                                                         

	   4Ag     1.521130     2B3u    1.661355     2B2u    1.661355  
	   2B2g    1.729361     2B3g    1.729361     4B1u    1.862972  
	   5Ag     2.126172     5B1u    2.278125     6B1u    5.196994  
	   1Au     5.196994     6Ag     5.197006     1B1g    5.197006  
	   3B2g    5.197009     3B3g    5.197009     3B3u    5.197021  
	   3B2u    5.197021     7Ag     5.197572     7B1u    5.198292  

	Final Occupation by Irrep:
	         Ag   B1g   B2g   B3g    Au   B1u   B2u   B3u 
	DOCC [     3,    0,    1,    1,    0,    3,    1,    1 ]
	SOCC [     0,    0,    0,    0,    0,    0,    0,    0 ]

  Energy converged.

  @UHF Final Energy:  -256.97615684918384

   => Energetics <=

    Nuclear Repulsion Energy =             22.5181790889361615
    One-Electron Energy =                -410.2745539534639647
    Two-Electron Energy =                 130.7802180153439622
    DFT Exchange-Correlation Energy =       0.0000000000000000
    Empirical Dispersion Energy =           0.0000000000000000
    Total Energy =                       -256.9761568491838375



Properties will be evaluated at   0.000000,   0.000000,   0.000000 Bohr
  ==> Properties <==


Properties computed using the SCF density density matrix
  Nuclear Dipole Moment: (a.u.)
     X:     0.0000      Y:     0.0000      Z:     0.0000

  Electronic Dipole Moment: (a.u.)
     X:     0.0000      Y:     0.0000      Z:     0.0000

  Dipole Moment: (a.u.)
     X:     0.0000      Y:     0.0000      Z:     0.0000     Total:     0.0000

  Dipole Moment: (Debye)
     X:     0.0000      Y:     0.0000      Z:     0.0000     Total:     0.0000


  Saving occupied orbitals to File 180.

*** tstop() called on cx1-15-5-2.cx1.hpc.ic.ac.uk at Thu Dec  5 15:50:41 2013
Module time:
	user time   =       0.29 seconds =       0.00 minutes
	system time =       0.03 seconds =       0.00 minutes
	total time  =          2 seconds =       0.03 minutes
Total time:
	user time   =       1.38 seconds =       0.02 minutes
	system time =       0.96 seconds =       0.02 minutes
	total time  =         47 seconds =       0.78 minutes

*** tstart() called on cx1-15-5-2.cx1.hpc.ic.ac.uk
*** at Thu Dec  5 15:50:41 2013


	**************************************************
	* TRANSQT2: Program to transform integrals from  *
	*           the SO basis to the MO basis.        *
	*                                                *
	*            Daniel, David, & Justin             *
	**************************************************


	Input parameters:
	-----------------
	Wave function   =	CCSD_T
	Backtransform   =	No
	Print Level     =	1
	Print TEIs      =	No
	Reference wfn   =	UHF
	Derivative      =	None
	Delete TEI File =	Yes
	Memory (Mbytes) =	2000.0
	Cache Level     =	2
	Cache Type      =	LRU
	Chkpt Parameters:
	--------------------
	Number of irreps     = 8
	Number of SOs        = 28
	Number of MOs        = 28
	Number of active MOs = 28

	Label	# SOs	# FZDC	# DOCC	# SOCC	# VIRT	# FZVR
	-----	-----	------	------	------	------	------
	 Ag	   7	    0	    3	    0	    4	    0
	 B1g	   1	    0	    0	    0	    1	    0
	 B2g	   3	    0	    1	    0	    2	    0
	 B3g	   3	    0	    1	    0	    2	    0
	 Au	   1	    0	    0	    0	    1	    0
	 B1u	   7	    0	    3	    0	    4	    0
	 B2u	   3	    0	    1	    0	    2	    0
	 B3u	   3	    0	    1	    0	    2	    0

	Nuclear Rep. energy (chkpt) =     22.51817908893616
	SCF energy          (chkpt) =   -256.97615684918384

	Presorting SO-basis two-electron integrals.
	Sorting File: SO Ints (pq,rs) nbuckets = 1
	Frozen-core energy =    0.000000000000000
	Starting AA/AB first half-transformation.
	Sorting AA/AB half-transformed integrals.
	Starting AA second half-transformation.
	Starting AB second half-transformation.
	Starting BB first half-transformation.
	Sorting BB half-transformed integrals.
	Starting BB second half-transformation.
	Two-electron integral transformation complete.

*** tstop() called on cx1-15-5-2.cx1.hpc.ic.ac.uk at Thu Dec  5 15:50:42 2013
Module time:
	user time   =       0.03 seconds =       0.00 minutes
	system time =       0.03 seconds =       0.00 minutes
	total time  =          1 seconds =       0.02 minutes
Total time:
	user time   =       1.41 seconds =       0.02 minutes
	system time =       0.99 seconds =       0.02 minutes
	total time  =         48 seconds =       0.80 minutes

*** tstart() called on cx1-15-5-2.cx1.hpc.ic.ac.uk
*** at Thu Dec  5 15:50:42 2013


			**************************
			*                        *
			*         CCSORT         *
			*                        *
			**************************


	Input parameters:
	-----------------
	Wave function   =	CCSD_T
	Reference wfn   =	UHF
	Derivative      =	None
	Memory (Mbytes) =	2000.0
	AO Basis        =	NONE
	Make (ab|cd)    =	True
	Make unpacked (ab|cd) =	True
	Cache Level     =	2
	Cache Type      =	LRU
	Local CC        =     No


	Chkpt Parameters:
	--------------------
	Number of irreps     = 8
	Number of MOs        = 28
	Number of active MOs = 28

	Label	# MOs	# FZDC	# DOCC	# SOCC	# VIRT	# FZVR
	-----	-----	------	------	------	------	------
	 Ag	   7	    0	    3	    0	    4	    0
	 B1g	   1	    0	    0	    0	    1	    0
	 B2g	   3	    0	    1	    0	    2	    0
	 B3g	   3	    0	    1	    0	    2	    0
	 Au	   1	    0	    0	    0	    1	    0
	 B1u	   7	    0	    3	    0	    4	    0
	 B2u	   3	    0	    1	    0	    2	    0
	 B3u	   3	    0	    1	    0	    2	    0

	Nuclear Rep. energy (chkpt) =     22.51817908893616
	SCF energy          (chkpt) =   -256.97615684918384

	Size of irrep 0 of <AB|CD> integrals:      0.000 (MW) /      0.002 (MB)
	Size of irrep 1 of <AB|CD> integrals:      0.000 (MW) /      0.002 (MB)
	Size of irrep 2 of <AB|CD> integrals:      0.000 (MW) /      0.003 (MB)
	Size of irrep 3 of <AB|CD> integrals:      0.000 (MW) /      0.003 (MB)
	Size of irrep 4 of <AB|CD> integrals:      0.000 (MW) /      0.002 (MB)
	Size of irrep 5 of <AB|CD> integrals:      0.001 (MW) /      0.005 (MB)
	Size of irrep 6 of <AB|CD> integrals:      0.000 (MW) /      0.003 (MB)
	Size of irrep 7 of <AB|CD> integrals:      0.000 (MW) /      0.003 (MB)
	Total:                                     0.003 (MW) /      0.024 (MB)

	Size of irrep 0 of <ab|cd> integrals:      0.000 (MW) /      0.002 (MB)
	Size of irrep 1 of <ab|cd> integrals:      0.000 (MW) /      0.002 (MB)
	Size of irrep 2 of <ab|cd> integrals:      0.000 (MW) /      0.003 (MB)
	Size of irrep 3 of <ab|cd> integrals:      0.000 (MW) /      0.003 (MB)
	Size of irrep 4 of <ab|cd> integrals:      0.000 (MW) /      0.002 (MB)
	Size of irrep 5 of <ab|cd> integrals:      0.001 (MW) /      0.005 (MB)
	Size of irrep 6 of <ab|cd> integrals:      0.000 (MW) /      0.003 (MB)
	Size of irrep 7 of <ab|cd> integrals:      0.000 (MW) /      0.003 (MB)
	Total:                                     0.003 (MW) /      0.024 (MB)

	Size of irrep 0 of <Ab|Cd> integrals:      0.003 (MW) /      0.020 (MB)
	Size of irrep 1 of <Ab|Cd> integrals:      0.001 (MW) /      0.008 (MB)
	Size of irrep 2 of <Ab|Cd> integrals:      0.002 (MW) /      0.013 (MB)
	Size of irrep 3 of <Ab|Cd> integrals:      0.002 (MW) /      0.013 (MB)
	Size of irrep 4 of <Ab|Cd> integrals:      0.001 (MW) /      0.008 (MB)
	Size of irrep 5 of <Ab|Cd> integrals:      0.003 (MW) /      0.020 (MB)
	Size of irrep 6 of <Ab|Cd> integrals:      0.002 (MW) /      0.013 (MB)
	Size of irrep 7 of <Ab|Cd> integrals:      0.002 (MW) /      0.013 (MB)
	Total:                                     0.013 (MW) /      0.108 (MB)

	Size of irrep 0 of <IA|BC> integrals:      0.002 (MW) /      0.013 (MB)
	Size of irrep 1 of <IA|BC> integrals:      0.000 (MW) /      0.004 (MB)
	Size of irrep 2 of <IA|BC> integrals:      0.001 (MW) /      0.007 (MB)
	Size of irrep 3 of <IA|BC> integrals:      0.001 (MW) /      0.007 (MB)
	Size of irrep 4 of <IA|BC> integrals:      0.000 (MW) /      0.004 (MB)
	Size of irrep 5 of <IA|BC> integrals:      0.002 (MW) /      0.013 (MB)
	Size of irrep 6 of <IA|BC> integrals:      0.001 (MW) /      0.007 (MB)
	Size of irrep 7 of <IA|BC> integrals:      0.001 (MW) /      0.007 (MB)
	Total:                                     0.008 (MW) /      0.061 (MB)

	Size of irrep 0 of <ia|bc> integrals:      0.002 (MW) /      0.013 (MB)
	Size of irrep 1 of <ia|bc> integrals:      0.000 (MW) /      0.004 (MB)
	Size of irrep 2 of <ia|bc> integrals:      0.001 (MW) /      0.007 (MB)
	Size of irrep 3 of <ia|bc> integrals:      0.001 (MW) /      0.007 (MB)
	Size of irrep 4 of <ia|bc> integrals:      0.000 (MW) /      0.004 (MB)
	Size of irrep 5 of <ia|bc> integrals:      0.002 (MW) /      0.013 (MB)
	Size of irrep 6 of <ia|bc> integrals:      0.001 (MW) /      0.007 (MB)
	Size of irrep 7 of <ia|bc> integrals:      0.001 (MW) /      0.007 (MB)
	Total:                                     0.008 (MW) /      0.061 (MB)

	Size of irrep 0 of <Ia|Bc> integrals:      0.002 (MW) /      0.013 (MB)
	Size of irrep 1 of <Ia|Bc> integrals:      0.000 (MW) /      0.004 (MB)
	Size of irrep 2 of <Ia|Bc> integrals:      0.001 (MW) /      0.007 (MB)
	Size of irrep 3 of <Ia|Bc> integrals:      0.001 (MW) /      0.007 (MB)
	Size of irrep 4 of <Ia|Bc> integrals:      0.000 (MW) /      0.004 (MB)
	Size of irrep 5 of <Ia|Bc> integrals:      0.002 (MW) /      0.013 (MB)
	Size of irrep 6 of <Ia|Bc> integrals:      0.001 (MW) /      0.007 (MB)
	Size of irrep 7 of <Ia|Bc> integrals:      0.001 (MW) /      0.007 (MB)
	Total:                                     0.008 (MW) /      0.061 (MB)

	Size of irrep 0 of <iA|bC> integrals:      0.002 (MW) /      0.013 (MB)
	Size of irrep 1 of <iA|bC> integrals:      0.000 (MW) /      0.004 (MB)
	Size of irrep 2 of <iA|bC> integrals:      0.001 (MW) /      0.007 (MB)
	Size of irrep 3 of <iA|bC> integrals:      0.001 (MW) /      0.007 (MB)
	Size of irrep 4 of <iA|bC> integrals:      0.000 (MW) /      0.004 (MB)
	Size of irrep 5 of <iA|bC> integrals:      0.002 (MW) /      0.013 (MB)
	Size of irrep 6 of <iA|bC> integrals:      0.001 (MW) /      0.007 (MB)
	Size of irrep 7 of <iA|bC> integrals:      0.001 (MW) /      0.007 (MB)
	Total:                                     0.008 (MW) /      0.061 (MB)

	Size of irrep 0 of tIjAb amplitudes:       0.001 (MW) /      0.009 (MB)
	Size of irrep 1 of tIjAb amplitudes:       0.000 (MW) /      0.001 (MB)
	Size of irrep 2 of tIjAb amplitudes:       0.000 (MW) /      0.004 (MB)
	Size of irrep 3 of tIjAb amplitudes:       0.000 (MW) /      0.004 (MB)
	Size of irrep 4 of tIjAb amplitudes:       0.000 (MW) /      0.001 (MB)
	Size of irrep 5 of tIjAb amplitudes:       0.001 (MW) /      0.009 (MB)
	Size of irrep 6 of tIjAb amplitudes:       0.000 (MW) /      0.004 (MB)
	Size of irrep 7 of tIjAb amplitudes:       0.000 (MW) /      0.004 (MB)
	Total:                                     0.004 (MW) /      0.035 (MB)


	Sorting File: A <IJ|KL> nbuckets = 1
	Sorting File: B <AB|CD> nbuckets = 1
	Sorting File: C <IA|JB> nbuckets = 1
	Sorting File: D <IJ|AB> nbuckets = 1
	Sorting File: E <AI|JK> nbuckets = 1
	Sorting File: F <IA|BC> nbuckets = 1
	Sorting File: F <AI|BC> nbuckets = 1
	Sorting File: A <ij|kl> nbuckets = 1
	Sorting File: B <ab|cd> nbuckets = 1
	Sorting File: C <ia|jb> nbuckets = 1
	Sorting File: D <ij|ab> nbuckets = 1
	Sorting File: E <ai|jk> nbuckets = 1
	Sorting File: F <ia|bc> nbuckets = 1
	Sorting File: F <ai|bc> nbuckets = 1
	Sorting File: A <Ij|Kl> nbuckets = 1
	Sorting File: B <Ab|Cd> nbuckets = 1
	Sorting File: C <Ia|Jb> nbuckets = 1
	Sorting File: C <Ai|Bj> nbuckets = 1
	Sorting File: D <Ij|Ab> nbuckets = 1
	Sorting File: E <Ai|Jk> nbuckets = 1
	Sorting File: E <Ij|Ka> nbuckets = 1
	Sorting File: F <Ia|Bc> nbuckets = 1
	Sorting File: F <aI|bC> nbuckets = 1
	Sorting File: F <Ab|Ci> nbuckets = 1
	Sorting File: F <Ai|Bc> nbuckets = 1
	One-electron energy          =   -410.27455455213300
	Two-electron (AA) energy     =     26.63192949833994
	Two-electron (BB) energy     =     26.63192949833994
	Two-electron (AB) energy     =     77.51635961733295
	Two-electron energy          =    130.78021861401282
	Frozen-core energy (transqt) =      0.00000000000000
	Reference energy             =   -256.97615684918395

*** tstop() called on cx1-15-5-2.cx1.hpc.ic.ac.uk at Thu Dec  5 15:50:51 2013
Module time:
	user time   =       0.09 seconds =       0.00 minutes
	system time =       0.19 seconds =       0.00 minutes
	total time  =          9 seconds =       0.15 minutes
Total time:
	user time   =       1.50 seconds =       0.03 minutes
	system time =       1.18 seconds =       0.02 minutes
	total time  =         57 seconds =       0.95 minutes

*** tstart() called on cx1-15-5-2.cx1.hpc.ic.ac.uk
*** at Thu Dec  5 15:50:51 2013

			**************************
			*                        *
			*        CCENERGY        *
			*                        *
			**************************

	Nuclear Rep. energy (chkpt)   =   22.518179088936161
	SCF energy          (chkpt)   = -256.976156849183837
	Reference energy    (file100) = -256.976156849183951

	Input parameters:
	-----------------
	Wave function   =   CCSD_T
	Reference wfn   =     UHF
	Memory (Mbytes) =     2000.0
	Maxiter         =     50
	R_Convergence   =     1.0e-07
	E_Convergence   =     1.0e-06
	Restart         =     No
	DIIS            =     Yes
	AO Basis        =     NONE
	ABCD            =     NEW
	Cache Level     =     2
	Cache Type      =     LRU
	Print Level     =     1
	Num. of threads =     1
	# Amps to Print =     10
	Print MP2 Amps? =     No
	Analyze T2 Amps =     No
	Print Pair Ener =     No
	Local CC        =     No
	SCS-MP2         =     False
	SCSN-MP2        =     False
	SCS-CCSD        =     False

	            Solving CC Amplitude Equations
	            ------------------------------
  Iter             Energy              RMS        T1Diag      D1Diag    New D1Diag    D2Diag
  ----     ---------------------    ---------   ----------  ----------  ----------   --------
     0        -0.375368178199319    5.714e-08    0.000000    0.000000    0.000000    0.000000
     1        -0.378717740133203    2.433e-02    0.003349    0.000000    0.000000    0.000000
     2        -0.381451624818937    5.185e-03    0.003014    0.000000    0.000000    0.000000
     3        -0.381930746441609    1.432e-03    0.003114    0.000000    0.000000    0.000000
     4        -0.381917455781247    1.312e-04    0.003112    0.000000    0.000000    0.000000
     5        -0.381917118859631    1.326e-05    0.003111    0.000000    0.000000    0.000000
     6        -0.381917234279432    2.231e-06    0.003111    0.000000    0.000000    0.000000
     7        -0.381917230676019    4.157e-07    0.003111    0.000000    0.000000    0.000000
     8        -0.381917228723347    5.572e-08    0.003111    0.000000    0.000000    0.000000

	Iterations converged.


	Largest TIA Amplitudes:
	          2   0         0.0051603171
	          8  14        -0.0038655078
	          9  16        -0.0038655078
	          3   5        -0.0033393088
	          4   7        -0.0033393088
	          1   1        -0.0025210492
	          7  10         0.0023256935
	          6  11        -0.0019274275
	          6  10        -0.0012433158
	          1   0        -0.0009578782

	Largest Tia Amplitudes:
	          2   0         0.0051603171
	          8  14        -0.0038655078
	          9  16        -0.0038655078
	          3   5        -0.0033393088
	          4   7        -0.0033393088
	          1   1        -0.0025210492
	          7  10         0.0023256935
	          6  11        -0.0019274275
	          6  10        -0.0012433158
	          1   0        -0.0009578782

	Largest TIJAB Amplitudes:
	  7   4  14   0         0.0130048238
	  7   3  16   0         0.0130048238
	  9   7   5   0        -0.0123894307
	  8   7   7   0        -0.0123894307
	  4   3  16  14         0.0120027905
	  8   2  14   0         0.0117898163
	  9   2  16   0         0.0117898163
	  9   8  16  14        -0.0117668481
	  3   2   5   0         0.0117327614
	  4   2   7   0         0.0117327614

	Largest Tijab Amplitudes:
	  7   4  14   0         0.0130048238
	  7   3  16   0         0.0130048238
	  9   7   5   0        -0.0123894307
	  8   7   7   0        -0.0123894307
	  4   3  16  14         0.0120027905
	  8   2  14   0         0.0117898163
	  9   2  16   0         0.0117898163
	  9   8  16  14        -0.0117668481
	  3   2   5   0         0.0117327614
	  4   2   7   0         0.0117327614

	Largest TIjAb Amplitudes:
	  7   7   0   0        -0.0244390659
	  2   2   0   0        -0.0228479594
	  3   3  16  16        -0.0216165327
	  4   4  14  14        -0.0216165327
	  8   8  14  14        -0.0213921779
	  9   9  16  16        -0.0213921779
	  3   9   5  16        -0.0210924141
	  4   8   7  14        -0.0210924141
	  8   4  14   7        -0.0210924141
	  9   3  16   5        -0.0210924141

	SCF energy       (chkpt)              = -256.976156849183837
	Reference energy (file100)            = -256.976156849183951

	Opposite-spin MP2 correlation energy  =   -0.272139288287088
	Same-spin MP2 correlation energy      =   -0.103228889912231
	MP2 correlation energy                =   -0.375368178199319
      * MP2 total energy                      = -257.351525027383275

	Opposite-spin CCSD correlation energy =   -0.287020412310928
	Same-spin CCSD correlation energy     =   -0.094896816714593
	CCSD correlation energy               =   -0.381917228723347
      * CCSD total energy                     = -257.358074077907304


*** tstop() called on cx1-15-5-2.cx1.hpc.ic.ac.uk at Thu Dec  5 15:51:20 2013
Module time:
	user time   =       0.38 seconds =       0.01 minutes
	system time =       0.61 seconds =       0.01 minutes
	total time  =         29 seconds =       0.48 minutes
Total time:
	user time   =       1.88 seconds =       0.03 minutes
	system time =       1.79 seconds =       0.03 minutes
	total time  =         86 seconds =       1.43 minutes

*** tstart() called on cx1-15-5-2.cx1.hpc.ic.ac.uk
*** at Thu Dec  5 15:51:20 2013

			**************************
			*                        *
			*        CCTRIPLES       *
			*                        *
			**************************


	Wave function   =    CCSD_T
	Reference wfn   =      UHF

	Nuclear Rep. energy (chkpt)   =   22.518179088936161
	SCF energy          (chkpt)   = -256.976156849183837
	Reference energy    (file100) = -256.976156849183951
	CCSD energy         (file100) =   -0.381917228723347
	Total CCSD energy   (file100) = -257.358074077907304

	Number of ijk index combinations:
	Spin Case AAA: 120
	Spin Case BBB: 120
	Spin Case AAB: 450
	Spin Case ABB: 450
	AAA (T) energy                =   -0.000051796657878
	BBB (T) energy                =   -0.000051796657878
	AAB (T) energy                =   -0.001021315234317
	ABB (T) energy                =   -0.001021315234317
	(T) energy                    =   -0.002146223784391
      * CCSD(T) total energy          = -257.360220301691697


*** tstop() called on cx1-15-5-2.cx1.hpc.ic.ac.uk at Thu Dec  5 15:51:24 2013
Module time:
	user time   =       0.32 seconds =       0.01 minutes
	system time =       0.15 seconds =       0.00 minutes
	total time  =          4 seconds =       0.07 minutes
Total time:
	user time   =       2.20 seconds =       0.04 minutes
	system time =       1.94 seconds =       0.03 minutes
	total time  =         90 seconds =       1.50 minutes
Setting geometry variable R to 2.400000

*** tstart() called on cx1-15-5-2.cx1.hpc.ic.ac.uk
*** at Thu Dec  5 15:51:24 2013

	There are an even number of electrons - assuming singlet.
	Specify the multiplicity with the MULTP option in the
	input if this is incorrect


         ---------------------------------------------------------
                                   SCF
            by Justin Turney, Rob Parrish, and Andy Simmonett
                              UHF Reference
                        1 Threads,   2000 MiB Core
         ---------------------------------------------------------

  ==> Geometry <==

    Molecular point group: d2h
    Full point group: D_inf_h

    Geometry (in Angstrom), charge = 0, multiplicity = 1:

       Center              X                  Y                   Z       
    ------------   -----------------  -----------------  -----------------
          NE          0.000000000000     0.000000000000    -1.200000000000
          NE          0.000000000000     0.000000000000     1.200000000000

  Running in d2h symmetry.


	Rotational constants (cm^-1):
	A = **********    B =    0.29278   C =    0.29278

	Rotational constants (MHz):
	A = **********    B = 8777.25879   C = 8777.25879
  Nuclear repulsion =   22.049050357916677

  Charge       = 0
  Multiplicity = 1
  Electrons    = 20
  Nalpha       = 10
  Nbeta        = 10

  ==> Algorithm <==

  SCF Algorithm Type is PK.
  DIIS enabled.
  MOM disabled.
  Fractional occupation disabled.
  Guess Type is CORE.
  Energy threshold   = 1.00e-08
  Density threshold  = 1.00e-08
  Integral threshold = 0.00e+00

  ==> Primary Basis <==

  Basis Set: CC-PVDZ
    Number of shells: 12
    Number of basis function: 28
    Number of Cartesian functions: 30
    Spherical Harmonics?: true
    Max angular momentum: 2

  ==> Pre-Iterations <==

   -------------------------------------------------------
    Irrep   Nso     Nmo     Nalpha   Nbeta   Ndocc  Nsocc
   -------------------------------------------------------
     Ag         7       7       0       0       0       0
     B1g        1       1       0       0       0       0
     B2g        3       3       0       0       0       0
     B3g        3       3       0       0       0       0
     Au         1       1       0       0       0       0
     B1u        7       7       0       0       0       0
     B2u        3       3       0       0       0       0
     B3u        3       3       0       0       0       0
   -------------------------------------------------------
    Total      28      28      10      10      10       0
   -------------------------------------------------------

  Starting with a DF guess...

 OEINTS: Wrapper to libmints.
   by Justin Turney

   Calculation information:
      Number of atoms:                   2
      Number of AO shells:              12
      Number of SO shells:               6
      Number of primitives:             44
      Number of atomic orbitals:        30
      Number of basis functions:        28

      Number of irreps:                  8
      Number of functions per irrep: [   7    1    3    3    1    7    3    3 ]

      Overlap, kinetic, potential, dipole, and quadrupole integrals
        stored in file 35.

  ==> Integral Setup <==

  ==> DFJK: Density-Fitted J/K Matrices <==

    J tasked:                  Yes
    K tasked:                  Yes
    wK tasked:                  No
    OpenMP threads:              1
    Integrals threads:           1
    Memory (MB):              1430
    Algorithm:                Core
    Integral Cache:           NONE
    Schwarz Cutoff:          1E-12
    Fitting Condition:       1E-12

   => Auxiliary Basis Set <=

  Basis Set: CC-PVDZ-JKFIT
    Number of shells: 48
    Number of basis function: 140
    Number of Cartesian functions: 162
    Spherical Harmonics?: true
    Max angular momentum: 3

  Minimum eigenvalue in the overlap matrix is 1.9003779355E-01.
  Using Symmetric Orthogonalization.
  SCF Guess: Core (One-Electron) Hamiltonian.

  ==> Iterations <==

                           Total Energy        Delta E     RMS |[F,P]|

   @DF-UHF iter   1:  -245.51364952802774   -2.45514e+02   3.95214e-01 
   @DF-UHF iter   2:  -254.74434563583762   -9.23070e+00   2.57847e-01 DIIS
   @DF-UHF iter   3:  -256.97278822920418   -2.22844e+00   1.03083e-02 DIIS
   @DF-UHF iter   4:  -256.97653896995894   -3.75074e-03   1.94716e-03 DIIS
   @DF-UHF iter   5:  -256.97662336984757   -8.43999e-05   3.99695e-04 DIIS
   @DF-UHF iter   6:  -256.97662749035214   -4.12050e-06   1.34734e-05 DIIS
   @DF-UHF iter   7:  -256.97662749435608   -4.00394e-09   4.28610e-07 DIIS
   @DF-UHF iter   8:  -256.97662749436722   -1.11413e-11   7.20985e-08 DIIS
   @DF-UHF iter   9:  -256.97662749436734   -1.13687e-13   1.19469e-08 DIIS
   @DF-UHF iter  10:  -256.97662749436734    0.00000e+00   2.09174e-09 DIIS

  DF guess converged.

  ==> Integral Setup <==

 MINTS: Wrapper to libmints.
   by Justin Turney

   Calculation information:
      Number of atoms:                   2
      Number of AO shells:              12
      Number of SO shells:               6
      Number of primitives:             44
      Number of atomic orbitals:        30
      Number of basis functions:        28

      Number of irreps:                  8
      Integral cutoff                 0.00e+00
      Number of functions per irrep: [   7    1    3    3    1    7    3    3 ]

      Overlap, kinetic, potential, dipole, and quadrupole integrals
        stored in file 35.

      Computing two-electron integrals...done
      Computed 10726 non-zero two-electron integrals.
        Stored in file 33.

	Batch   1 pq = [       0,      82] index = [             0,3403]
  ==> DiskJK: Disk-Based J/K Matrices <==

    J tasked:                  Yes
    K tasked:                  Yes
    wK tasked:                  No
    Memory (MB):              1430
    Schwarz Cutoff:          1E-12

   @UHF iter  11:  -256.97662067800928    6.81636e-06   5.87493e-06 DIIS
   @UHF iter  12:  -256.97662067987358   -1.86429e-09   1.53205e-06 DIIS
   @UHF iter  13:  -256.97662068002620   -1.52625e-10   4.07982e-07 DIIS
   @UHF iter  14:  -256.97662068003370   -7.50333e-12   8.25881e-08 DIIS
   @UHF iter  15:  -256.97662068003405   -3.41061e-13   7.98146e-09 DIIS

  ==> Post-Iterations <==

   @Spin Contamination Metric:  -2.486899575E-14
   @S^2 Expected:                0.000000000E+00
   @S^2 Observed:               -2.486899575E-14
   @S   Expected:                0.000000000E+00
   @S   Observed:                0.000000000E+00

	Orbital Energies (a.u.)
	-----------------------

	Alpha Occupied:                                                       

	   1B1u  -32.765016     1Ag   -32.765010     2Ag    -1.921693  
	   2B1u   -1.915606     3Ag    -0.850078     1B3u   -0.834637  
	   1B2u   -0.834637     1B2g   -0.829086     1B3g   -0.829086  
	   3B1u   -0.813564  

	Alpha Virtual:                                                        

	   4Ag     1.530993     2B3u    1.665513     2B2u    1.665513  
	   2B3g    1.724748     2B2g    1.724748     4B1u    1.855116  
	   5Ag     2.129754     5B1u    2.255837     6B1u    5.196892  
	   1Au     5.196892     6Ag     5.196902     1B1g    5.196902  
	   3B3g    5.196902     3B2g    5.196902     3B2u    5.196919  
	   3B3u    5.196919     7Ag     5.197283     7B1u    5.197738  

	Beta Occupied:                                                        

	   1B1u  -32.765016     1Ag   -32.765010     2Ag    -1.921693  
	   2B1u   -1.915606     3Ag    -0.850078     1B3u   -0.834637  
	   1B2u   -0.834637     1B2g   -0.829086     1B3g   -0.829086  
	   3B1u   -0.813564  

	Beta Virtual:                                                         

	   4Ag     1.530993     2B3u    1.665513     2B2u    1.665513  
	   2B3g    1.724748     2B2g    1.724748     4B1u    1.855116  
	   5Ag     2.129754     5B1u    2.255837     6B1u    5.196892  
	   1Au     5.196892     6Ag     5.196902     1B1g    5.196902  
	   3B3g    5.196902     3B2g    5.196902     3B2u    5.196919  
	   3B3u    5.196919     7Ag     5.197283     7B1u    5.197738  

	Final Occupation by Irrep:
	         Ag   B1g   B2g   B3g    Au   B1u   B2u   B3u 
	DOCC [     3,    0,    1,    1,    0,    3,    1,    1 ]
	SOCC [     0,    0,    0,    0,    0,    0,    0,    0 ]

  Energy converged.

  @UHF Final Energy:  -256.97662068003405

   => Energetics <=

    Nuclear Repulsion Energy =             22.0490503579166770
    One-Electron Energy =                -409.3345140202094399
    Two-Electron Energy =                 130.3088429822587386
    DFT Exchange-Correlation Energy =       0.0000000000000000
    Empirical Dispersion Energy =           0.0000000000000000
    Total Energy =                       -256.9766206800340456



Properties will be evaluated at   0.000000,   0.000000,   0.000000 Bohr
  ==> Properties <==


Properties computed using the SCF density density matrix
  Nuclear Dipole Moment: (a.u.)
     X:     0.0000      Y:     0.0000      Z:     0.0000

  Electronic Dipole Moment: (a.u.)
     X:     0.0000      Y:     0.0000      Z:     0.0000

  Dipole Moment: (a.u.)
     X:     0.0000      Y:     0.0000      Z:     0.0000     Total:     0.0000

  Dipole Moment: (Debye)
     X:     0.0000      Y:     0.0000      Z:     0.0000     Total:     0.0000


  Saving occupied orbitals to File 180.

*** tstop() called on cx1-15-5-2.cx1.hpc.ic.ac.uk at Thu Dec  5 15:51:31 2013
Module time:
	user time   =       0.29 seconds =       0.00 minutes
	system time =       0.04 seconds =       0.00 minutes
	total time  =          7 seconds =       0.12 minutes
Total time:
	user time   =       2.51 seconds =       0.04 minutes
	system time =       1.98 seconds =       0.03 minutes
	total time  =         97 seconds =       1.62 minutes

*** tstart() called on cx1-15-5-2.cx1.hpc.ic.ac.uk
*** at Thu Dec  5 15:51:31 2013


	**************************************************
	* TRANSQT2: Program to transform integrals from  *
	*           the SO basis to the MO basis.        *
	*                                                *
	*            Daniel, David, & Justin             *
	**************************************************


	Input parameters:
	-----------------
	Wave function   =	CCSD_T
	Backtransform   =	No
	Print Level     =	1
	Print TEIs      =	No
	Reference wfn   =	UHF
	Derivative      =	None
	Delete TEI File =	Yes
	Memory (Mbytes) =	2000.0
	Cache Level     =	2
	Cache Type      =	LRU
	Chkpt Parameters:
	--------------------
	Number of irreps     = 8
	Number of SOs        = 28
	Number of MOs        = 28
	Number of active MOs = 28

	Label	# SOs	# FZDC	# DOCC	# SOCC	# VIRT	# FZVR
	-----	-----	------	------	------	------	------
	 Ag	   7	    0	    3	    0	    4	    0
	 B1g	   1	    0	    0	    0	    1	    0
	 B2g	   3	    0	    1	    0	    2	    0
	 B3g	   3	    0	    1	    0	    2	    0
	 Au	   1	    0	    0	    0	    1	    0
	 B1u	   7	    0	    3	    0	    4	    0
	 B2u	   3	    0	    1	    0	    2	    0
	 B3u	   3	    0	    1	    0	    2	    0

	Nuclear Rep. energy (chkpt) =     22.04905035791668
	SCF energy          (chkpt) =   -256.97662068003405

	Presorting SO-basis two-electron integrals.
	Sorting File: SO Ints (pq,rs) nbuckets = 1
	Frozen-core energy =    0.000000000000000
	Starting AA/AB first half-transformation.
	Sorting AA/AB half-transformed integrals.
	Starting AA second half-transformation.
	Starting AB second half-transformation.
	Starting BB first half-transformation.
	Sorting BB half-transformed integrals.
	Starting BB second half-transformation.
	Two-electron integral transformation complete.

*** tstop() called on cx1-15-5-2.cx1.hpc.ic.ac.uk at Thu Dec  5 15:51:32 2013
Module time:
	user time   =       0.04 seconds =       0.00 minutes
	system time =       0.02 seconds =       0.00 minutes
	total time  =          1 seconds =       0.02 minutes
Total time:
	user time   =       2.55 seconds =       0.04 minutes
	system time =       2.00 seconds =       0.03 minutes
	total time  =         98 seconds =       1.63 minutes

*** tstart() called on cx1-15-5-2.cx1.hpc.ic.ac.uk
*** at Thu Dec  5 15:51:32 2013


			**************************
			*                        *
			*         CCSORT         *
			*                        *
			**************************


	Input parameters:
	-----------------
	Wave function   =	CCSD_T
	Reference wfn   =	UHF
	Derivative      =	None
	Memory (Mbytes) =	2000.0
	AO Basis        =	NONE
	Make (ab|cd)    =	True
	Make unpacked (ab|cd) =	True
	Cache Level     =	2
	Cache Type      =	LRU
	Local CC        =     No


	Chkpt Parameters:
	--------------------
	Number of irreps     = 8
	Number of MOs        = 28
	Number of active MOs = 28

	Label	# MOs	# FZDC	# DOCC	# SOCC	# VIRT	# FZVR
	-----	-----	------	------	------	------	------
	 Ag	   7	    0	    3	    0	    4	    0
	 B1g	   1	    0	    0	    0	    1	    0
	 B2g	   3	    0	    1	    0	    2	    0
	 B3g	   3	    0	    1	    0	    2	    0
	 Au	   1	    0	    0	    0	    1	    0
	 B1u	   7	    0	    3	    0	    4	    0
	 B2u	   3	    0	    1	    0	    2	    0
	 B3u	   3	    0	    1	    0	    2	    0

	Nuclear Rep. energy (chkpt) =     22.04905035791668
	SCF energy          (chkpt) =   -256.97662068003405

	Size of irrep 0 of <AB|CD> integrals:      0.000 (MW) /      0.002 (MB)
	Size of irrep 1 of <AB|CD> integrals:      0.000 (MW) /      0.002 (MB)
	Size of irrep 2 of <AB|CD> integrals:      0.000 (MW) /      0.003 (MB)
	Size of irrep 3 of <AB|CD> integrals:      0.000 (MW) /      0.003 (MB)
	Size of irrep 4 of <AB|CD> integrals:      0.000 (MW) /      0.002 (MB)
	Size of irrep 5 of <AB|CD> integrals:      0.001 (MW) /      0.005 (MB)
	Size of irrep 6 of <AB|CD> integrals:      0.000 (MW) /      0.003 (MB)
	Size of irrep 7 of <AB|CD> integrals:      0.000 (MW) /      0.003 (MB)
	Total:                                     0.003 (MW) /      0.024 (MB)

	Size of irrep 0 of <ab|cd> integrals:      0.000 (MW) /      0.002 (MB)
	Size of irrep 1 of <ab|cd> integrals:      0.000 (MW) /      0.002 (MB)
	Size of irrep 2 of <ab|cd> integrals:      0.000 (MW) /      0.003 (MB)
	Size of irrep 3 of <ab|cd> integrals:      0.000 (MW) /      0.003 (MB)
	Size of irrep 4 of <ab|cd> integrals:      0.000 (MW) /      0.002 (MB)
	Size of irrep 5 of <ab|cd> integrals:      0.001 (MW) /      0.005 (MB)
	Size of irrep 6 of <ab|cd> integrals:      0.000 (MW) /      0.003 (MB)
	Size of irrep 7 of <ab|cd> integrals:      0.000 (MW) /      0.003 (MB)
	Total:                                     0.003 (MW) /      0.024 (MB)

	Size of irrep 0 of <Ab|Cd> integrals:      0.003 (MW) /      0.020 (MB)
	Size of irrep 1 of <Ab|Cd> integrals:      0.001 (MW) /      0.008 (MB)
	Size of irrep 2 of <Ab|Cd> integrals:      0.002 (MW) /      0.013 (MB)
	Size of irrep 3 of <Ab|Cd> integrals:      0.002 (MW) /      0.013 (MB)
	Size of irrep 4 of <Ab|Cd> integrals:      0.001 (MW) /      0.008 (MB)
	Size of irrep 5 of <Ab|Cd> integrals:      0.003 (MW) /      0.020 (MB)
	Size of irrep 6 of <Ab|Cd> integrals:      0.002 (MW) /      0.013 (MB)
	Size of irrep 7 of <Ab|Cd> integrals:      0.002 (MW) /      0.013 (MB)
	Total:                                     0.013 (MW) /      0.108 (MB)

	Size of irrep 0 of <IA|BC> integrals:      0.002 (MW) /      0.013 (MB)
	Size of irrep 1 of <IA|BC> integrals:      0.000 (MW) /      0.004 (MB)
	Size of irrep 2 of <IA|BC> integrals:      0.001 (MW) /      0.007 (MB)
	Size of irrep 3 of <IA|BC> integrals:      0.001 (MW) /      0.007 (MB)
	Size of irrep 4 of <IA|BC> integrals:      0.000 (MW) /      0.004 (MB)
	Size of irrep 5 of <IA|BC> integrals:      0.002 (MW) /      0.013 (MB)
	Size of irrep 6 of <IA|BC> integrals:      0.001 (MW) /      0.007 (MB)
	Size of irrep 7 of <IA|BC> integrals:      0.001 (MW) /      0.007 (MB)
	Total:                                     0.008 (MW) /      0.061 (MB)

	Size of irrep 0 of <ia|bc> integrals:      0.002 (MW) /      0.013 (MB)
	Size of irrep 1 of <ia|bc> integrals:      0.000 (MW) /      0.004 (MB)
	Size of irrep 2 of <ia|bc> integrals:      0.001 (MW) /      0.007 (MB)
	Size of irrep 3 of <ia|bc> integrals:      0.001 (MW) /      0.007 (MB)
	Size of irrep 4 of <ia|bc> integrals:      0.000 (MW) /      0.004 (MB)
	Size of irrep 5 of <ia|bc> integrals:      0.002 (MW) /      0.013 (MB)
	Size of irrep 6 of <ia|bc> integrals:      0.001 (MW) /      0.007 (MB)
	Size of irrep 7 of <ia|bc> integrals:      0.001 (MW) /      0.007 (MB)
	Total:                                     0.008 (MW) /      0.061 (MB)

	Size of irrep 0 of <Ia|Bc> integrals:      0.002 (MW) /      0.013 (MB)
	Size of irrep 1 of <Ia|Bc> integrals:      0.000 (MW) /      0.004 (MB)
	Size of irrep 2 of <Ia|Bc> integrals:      0.001 (MW) /      0.007 (MB)
	Size of irrep 3 of <Ia|Bc> integrals:      0.001 (MW) /      0.007 (MB)
	Size of irrep 4 of <Ia|Bc> integrals:      0.000 (MW) /      0.004 (MB)
	Size of irrep 5 of <Ia|Bc> integrals:      0.002 (MW) /      0.013 (MB)
	Size of irrep 6 of <Ia|Bc> integrals:      0.001 (MW) /      0.007 (MB)
	Size of irrep 7 of <Ia|Bc> integrals:      0.001 (MW) /      0.007 (MB)
	Total:                                     0.008 (MW) /      0.061 (MB)

	Size of irrep 0 of <iA|bC> integrals:      0.002 (MW) /      0.013 (MB)
	Size of irrep 1 of <iA|bC> integrals:      0.000 (MW) /      0.004 (MB)
	Size of irrep 2 of <iA|bC> integrals:      0.001 (MW) /      0.007 (MB)
	Size of irrep 3 of <iA|bC> integrals:      0.001 (MW) /      0.007 (MB)
	Size of irrep 4 of <iA|bC> integrals:      0.000 (MW) /      0.004 (MB)
	Size of irrep 5 of <iA|bC> integrals:      0.002 (MW) /      0.013 (MB)
	Size of irrep 6 of <iA|bC> integrals:      0.001 (MW) /      0.007 (MB)
	Size of irrep 7 of <iA|bC> integrals:      0.001 (MW) /      0.007 (MB)
	Total:                                     0.008 (MW) /      0.061 (MB)

	Size of irrep 0 of tIjAb amplitudes:       0.001 (MW) /      0.009 (MB)
	Size of irrep 1 of tIjAb amplitudes:       0.000 (MW) /      0.001 (MB)
	Size of irrep 2 of tIjAb amplitudes:       0.000 (MW) /      0.004 (MB)
	Size of irrep 3 of tIjAb amplitudes:       0.000 (MW) /      0.004 (MB)
	Size of irrep 4 of tIjAb amplitudes:       0.000 (MW) /      0.001 (MB)
	Size of irrep 5 of tIjAb amplitudes:       0.001 (MW) /      0.009 (MB)
	Size of irrep 6 of tIjAb amplitudes:       0.000 (MW) /      0.004 (MB)
	Size of irrep 7 of tIjAb amplitudes:       0.000 (MW) /      0.004 (MB)
	Total:                                     0.004 (MW) /      0.035 (MB)


	Sorting File: A <IJ|KL> nbuckets = 1
	Sorting File: B <AB|CD> nbuckets = 1
	Sorting File: C <IA|JB> nbuckets = 1
	Sorting File: D <IJ|AB> nbuckets = 1
	Sorting File: E <AI|JK> nbuckets = 1
	Sorting File: F <IA|BC> nbuckets = 1
	Sorting File: F <AI|BC> nbuckets = 1
	Sorting File: A <ij|kl> nbuckets = 1
	Sorting File: B <ab|cd> nbuckets = 1
	Sorting File: C <ia|jb> nbuckets = 1
	Sorting File: D <ij|ab> nbuckets = 1
	Sorting File: E <ai|jk> nbuckets = 1
	Sorting File: F <ia|bc> nbuckets = 1
	Sorting File: F <ai|bc> nbuckets = 1
	Sorting File: A <Ij|Kl> nbuckets = 1
	Sorting File: B <Ab|Cd> nbuckets = 1
	Sorting File: C <Ia|Jb> nbuckets = 1
	Sorting File: C <Ai|Bj> nbuckets = 1
	Sorting File: D <Ij|Ab> nbuckets = 1
	Sorting File: E <Ai|Jk> nbuckets = 1
	Sorting File: E <Ij|Ka> nbuckets = 1
	Sorting File: F <Ia|Bc> nbuckets = 1
	Sorting File: F <aI|bC> nbuckets = 1
	Sorting File: F <Ab|Ci> nbuckets = 1
	Sorting File: F <Ai|Bc> nbuckets = 1
	One-electron energy          =   -409.33451415299186
	Two-electron (AA) energy     =     26.51423638620521
	Two-electron (BB) energy     =     26.51423638620521
	Two-electron (AB) energy     =     77.28037034263066
	Two-electron energy          =    130.30884311504107
	Frozen-core energy (transqt) =      0.00000000000000
	Reference energy             =   -256.97662068003416

*** tstop() called on cx1-15-5-2.cx1.hpc.ic.ac.uk at Thu Dec  5 15:51:40 2013
Module time:
	user time   =       0.08 seconds =       0.00 minutes
	system time =       0.14 seconds =       0.00 minutes
	total time  =          8 seconds =       0.13 minutes
Total time:
	user time   =       2.63 seconds =       0.04 minutes
	system time =       2.14 seconds =       0.04 minutes
	total time  =        106 seconds =       1.77 minutes

*** tstart() called on cx1-15-5-2.cx1.hpc.ic.ac.uk
*** at Thu Dec  5 15:51:40 2013

			**************************
			*                        *
			*        CCENERGY        *
			*                        *
			**************************

	Nuclear Rep. energy (chkpt)   =   22.049050357916677
	SCF energy          (chkpt)   = -256.976620680034046
	Reference energy    (file100) = -256.976620680034159

	Input parameters:
	-----------------
	Wave function   =   CCSD_T
	Reference wfn   =     UHF
	Memory (Mbytes) =     2000.0
	Maxiter         =     50
	R_Convergence   =     1.0e-07
	E_Convergence   =     1.0e-06
	Restart         =     No
	DIIS            =     Yes
	AO Basis        =     NONE
	ABCD            =     NEW
	Cache Level     =     2
	Cache Type      =     LRU
	Print Level     =     1
	Num. of threads =     1
	# Amps to Print =     10
	Print MP2 Amps? =     No
	Analyze T2 Amps =     No
	Print Pair Ener =     No
	Local CC        =     No
	SCS-MP2         =     False
	SCSN-MP2        =     False
	SCS-CCSD        =     False

	            Solving CC Amplitude Equations
	            ------------------------------
  Iter             Energy              RMS        T1Diag      D1Diag    New D1Diag    D2Diag
  ----     ---------------------    ---------   ----------  ----------  ----------   --------
     0        -0.375357277814057    5.572e-08    0.000000    0.000000    0.000000    0.000000
     1        -0.378711332759216    2.429e-02    0.003335    0.000000    0.000000    0.000000
     2        -0.381442681195607    5.182e-03    0.002998    0.000000    0.000000    0.000000
     3        -0.381921238247322    1.429e-03    0.003097    0.000000    0.000000    0.000000
     4        -0.381907888739603    1.307e-04    0.003095    0.000000    0.000000    0.000000
     5        -0.381907595823966    1.290e-05    0.003094    0.000000    0.000000    0.000000
     6        -0.381907706281842    2.209e-06    0.003094    0.000000    0.000000    0.000000
     7        -0.381907702226864    4.124e-07    0.003094    0.000000    0.000000    0.000000
     8        -0.381907700368215    5.384e-08    0.003094    0.000000    0.000000    0.000000

	Iterations converged.


	Largest TIA Amplitudes:
	          2   0         0.0050379078
	          8  14        -0.0038323206
	          9  16        -0.0038323206
	          3   5        -0.0033765727
	          4   7        -0.0033765727
	          1   1        -0.0025123285
	          7  10         0.0023987460
	          6  11        -0.0020179772
	          6  10        -0.0011234243
	          1   0        -0.0008580528

	Largest Tia Amplitudes:
	          2   0         0.0050379078
	          8  14        -0.0038323206
	          9  16        -0.0038323206
	          3   5        -0.0033765727
	          4   7        -0.0033765727
	          1   1        -0.0025123285
	          7  10         0.0023987460
	          6  11        -0.0020179772
	          6  10        -0.0011234243
	          1   0        -0.0008580528

	Largest TIJAB Amplitudes:
	  7   4  14   0         0.0128843819
	  7   3  16   0         0.0128843819
	  9   7   5   0        -0.0123502196
	  8   7   7   0        -0.0123502196
	  4   3  16  14         0.0119471445
	  8   2  14   0         0.0118005385
	  9   2  16   0         0.0118005385
	  3   2   5   0         0.0117570439
	  4   2   7   0         0.0117570439
	  9   8  16  14        -0.0117438815

	Largest Tijab Amplitudes:
	  7   4  14   0         0.0128843819
	  7   3  16   0         0.0128843819
	  9   7   5   0        -0.0123502196
	  8   7   7   0        -0.0123502196
	  4   3  16  14         0.0119471445
	  8   2  14   0         0.0118005385
	  9   2  16   0         0.0118005385
	  3   2   5   0         0.0117570439
	  4   2   7   0         0.0117570439
	  9   8  16  14        -0.0117438815

	Largest TIjAb Amplitudes:
	  7   7   0   0        -0.0241718989
	  2   2   0   0        -0.0227522303
	  3   3  16  16        -0.0215383281
	  4   4  14  14        -0.0215383281
[...]
	   5Ag     2.158614     5B1u    2.160295     6B1u    5.196709  
	   3B2g    5.196709     3B3g    5.196709     7B1u    5.196709  
	   1Au     5.196709     6Ag     5.196709     1B1g    5.196709  
	   3B3u    5.196709     3B2u    5.196709     7Ag     5.196710  

	Beta Occupied:                                                        

	   1B1u  -32.765639     1Ag   -32.765639     2Ag    -1.918859  
	   2B1u   -1.918742     3Ag    -0.833283     1B2u   -0.832186  
	   1B3u   -0.832186     1B3g   -0.832013     1B2g   -0.832013  
	   3B1u   -0.830915  

	Beta Virtual:                                                         

	   4Ag     1.682510     2B2u    1.693724     2B3u    1.693724  
	   2B3g    1.695388     2B2g    1.695388     4B1u    1.706652  
	   5Ag     2.158614     5B1u    2.160295     6B1u    5.196709  
	   3B2g    5.196709     3B3g    5.196709     7B1u    5.196709  
	   1Au     5.196709     6Ag     5.196709     1B1g    5.196709  
	   3B3u    5.196709     3B2u    5.196709     7Ag     5.196710  

	Final Occupation by Irrep:
	         Ag   B1g   B2g   B3g    Au   B1u   B2u   B3u 
	DOCC [     3,    0,    1,    1,    0,    3,    1,    1 ]
	SOCC [     0,    0,    0,    0,    0,    0,    0,    0 ]

  Energy converged.

  @UHF Final Energy:  -256.97755943605131

   => Energetics <=

    Nuclear Repulsion Energy =             15.7963345847761172
    One-Electron Energy =                -396.8248354875901782
    Two-Electron Energy =                 124.0509414667627368
    DFT Exchange-Correlation Energy =       0.0000000000000000
    Empirical Dispersion Energy =           0.0000000000000000
    Total Energy =                       -256.9775594360513651



Properties will be evaluated at   0.000000,   0.000000,   0.000000 Bohr
  ==> Properties <==


Properties computed using the SCF density density matrix
  Nuclear Dipole Moment: (a.u.)
     X:     0.0000      Y:     0.0000      Z:     0.0000

  Electronic Dipole Moment: (a.u.)
     X:     0.0000      Y:     0.0000      Z:     0.0000

  Dipole Moment: (a.u.)
     X:     0.0000      Y:     0.0000      Z:     0.0000     Total:     0.0000

  Dipole Moment: (Debye)
     X:     0.0000      Y:     0.0000      Z:     0.0000     Total:     0.0000


  Saving occupied orbitals to File 180.

*** tstop() called on cx1-15-5-2.cx1.hpc.ic.ac.uk at Thu Dec  5 16:10:54 2013
Module time:
	user time   =       0.28 seconds =       0.00 minutes
	system time =       0.03 seconds =       0.00 minutes
	total time  =          2 seconds =       0.03 minutes
Total time:
	user time   =      22.05 seconds =       0.37 minutes
	system time =      17.89 seconds =       0.30 minutes
	total time  =       1260 seconds =      21.00 minutes

*** tstart() called on cx1-15-5-2.cx1.hpc.ic.ac.uk
*** at Thu Dec  5 16:10:54 2013


	**************************************************
	* TRANSQT2: Program to transform integrals from  *
	*           the SO basis to the MO basis.        *
	*                                                *
	*            Daniel, David, & Justin             *
	**************************************************


	Input parameters:
	-----------------
	Wave function   =	CCSD_T
	Backtransform   =	No
	Print Level     =	1
	Print TEIs      =	No
	Reference wfn   =	UHF
	Derivative      =	None
	Delete TEI File =	Yes
	Memory (Mbytes) =	2000.0
	Cache Level     =	2
	Cache Type      =	LRU
	Chkpt Parameters:
	--------------------
	Number of irreps     = 8
	Number of SOs        = 28
	Number of MOs        = 28
	Number of active MOs = 28

	Label	# SOs	# FZDC	# DOCC	# SOCC	# VIRT	# FZVR
	-----	-----	------	------	------	------	------
	 Ag	   7	    0	    3	    0	    4	    0
	 B1g	   1	    0	    0	    0	    1	    0
	 B2g	   3	    0	    1	    0	    2	    0
	 B3g	   3	    0	    1	    0	    2	    0
	 Au	   1	    0	    0	    0	    1	    0
	 B1u	   7	    0	    3	    0	    4	    0
	 B2u	   3	    0	    1	    0	    2	    0
	 B3u	   3	    0	    1	    0	    2	    0

	Nuclear Rep. energy (chkpt) =     15.79633458477612
	SCF energy          (chkpt) =   -256.97755943605131

	Presorting SO-basis two-electron integrals.
	Sorting File: SO Ints (pq,rs) nbuckets = 1
	Frozen-core energy =    0.000000000000000
	Starting AA/AB first half-transformation.
	Sorting AA/AB half-transformed integrals.
	Starting AA second half-transformation.
	Starting AB second half-transformation.
	Starting BB first half-transformation.
	Sorting BB half-transformed integrals.
	Starting BB second half-transformation.
	Two-electron integral transformation complete.

*** tstop() called on cx1-15-5-2.cx1.hpc.ic.ac.uk at Thu Dec  5 16:10:56 2013
Module time:
	user time   =       0.03 seconds =       0.00 minutes
	system time =       0.03 seconds =       0.00 minutes
	total time  =          2 seconds =       0.03 minutes
Total time:
	user time   =      22.08 seconds =       0.37 minutes
	system time =      17.92 seconds =       0.30 minutes
	total time  =       1262 seconds =      21.03 minutes

*** tstart() called on cx1-15-5-2.cx1.hpc.ic.ac.uk
*** at Thu Dec  5 16:10:56 2013


			**************************
			*                        *
			*         CCSORT         *
			*                        *
			**************************


	Input parameters:
	-----------------
	Wave function   =	CCSD_T
	Reference wfn   =	UHF
	Derivative      =	None
	Memory (Mbytes) =	2000.0
	AO Basis        =	NONE
	Make (ab|cd)    =	True
	Make unpacked (ab|cd) =	True
	Cache Level     =	2
	Cache Type      =	LRU
	Local CC        =     No


	Chkpt Parameters:
	--------------------
	Number of irreps     = 8
	Number of MOs        = 28
	Number of active MOs = 28

	Label	# MOs	# FZDC	# DOCC	# SOCC	# VIRT	# FZVR
	-----	-----	------	------	------	------	------
	 Ag	   7	    0	    3	    0	    4	    0
	 B1g	   1	    0	    0	    0	    1	    0
	 B2g	   3	    0	    1	    0	    2	    0
	 B3g	   3	    0	    1	    0	    2	    0
	 Au	   1	    0	    0	    0	    1	    0
	 B1u	   7	    0	    3	    0	    4	    0
	 B2u	   3	    0	    1	    0	    2	    0
	 B3u	   3	    0	    1	    0	    2	    0

	Nuclear Rep. energy (chkpt) =     15.79633458477612
	SCF energy          (chkpt) =   -256.97755943605131

	Size of irrep 0 of <AB|CD> integrals:      0.000 (MW) /      0.002 (MB)
	Size of irrep 1 of <AB|CD> integrals:      0.000 (MW) /      0.002 (MB)
	Size of irrep 2 of <AB|CD> integrals:      0.000 (MW) /      0.003 (MB)
	Size of irrep 3 of <AB|CD> integrals:      0.000 (MW) /      0.003 (MB)
	Size of irrep 4 of <AB|CD> integrals:      0.000 (MW) /      0.002 (MB)
	Size of irrep 5 of <AB|CD> integrals:      0.001 (MW) /      0.005 (MB)
	Size of irrep 6 of <AB|CD> integrals:      0.000 (MW) /      0.003 (MB)
	Size of irrep 7 of <AB|CD> integrals:      0.000 (MW) /      0.003 (MB)
	Total:                                     0.003 (MW) /      0.024 (MB)

	Size of irrep 0 of <ab|cd> integrals:      0.000 (MW) /      0.002 (MB)
	Size of irrep 1 of <ab|cd> integrals:      0.000 (MW) /      0.002 (MB)
	Size of irrep 2 of <ab|cd> integrals:      0.000 (MW) /      0.003 (MB)
	Size of irrep 3 of <ab|cd> integrals:      0.000 (MW) /      0.003 (MB)
	Size of irrep 4 of <ab|cd> integrals:      0.000 (MW) /      0.002 (MB)
	Size of irrep 5 of <ab|cd> integrals:      0.001 (MW) /      0.005 (MB)
	Size of irrep 6 of <ab|cd> integrals:      0.000 (MW) /      0.003 (MB)
	Size of irrep 7 of <ab|cd> integrals:      0.000 (MW) /      0.003 (MB)
	Total:                                     0.003 (MW) /      0.024 (MB)

	Size of irrep 0 of <Ab|Cd> integrals:      0.003 (MW) /      0.020 (MB)
	Size of irrep 1 of <Ab|Cd> integrals:      0.001 (MW) /      0.008 (MB)
	Size of irrep 2 of <Ab|Cd> integrals:      0.002 (MW) /      0.013 (MB)
	Size of irrep 3 of <Ab|Cd> integrals:      0.002 (MW) /      0.013 (MB)
	Size of irrep 4 of <Ab|Cd> integrals:      0.001 (MW) /      0.008 (MB)
	Size of irrep 5 of <Ab|Cd> integrals:      0.003 (MW) /      0.020 (MB)
	Size of irrep 6 of <Ab|Cd> integrals:      0.002 (MW) /      0.013 (MB)
	Size of irrep 7 of <Ab|Cd> integrals:      0.002 (MW) /      0.013 (MB)
	Total:                                     0.013 (MW) /      0.108 (MB)

	Size of irrep 0 of <IA|BC> integrals:      0.002 (MW) /      0.013 (MB)
	Size of irrep 1 of <IA|BC> integrals:      0.000 (MW) /      0.004 (MB)
	Size of irrep 2 of <IA|BC> integrals:      0.001 (MW) /      0.007 (MB)
	Size of irrep 3 of <IA|BC> integrals:      0.001 (MW) /      0.007 (MB)
	Size of irrep 4 of <IA|BC> integrals:      0.000 (MW) /      0.004 (MB)
	Size of irrep 5 of <IA|BC> integrals:      0.002 (MW) /      0.013 (MB)
	Size of irrep 6 of <IA|BC> integrals:      0.001 (MW) /      0.007 (MB)
	Size of irrep 7 of <IA|BC> integrals:      0.001 (MW) /      0.007 (MB)
	Total:                                     0.008 (MW) /      0.061 (MB)

	Size of irrep 0 of <ia|bc> integrals:      0.002 (MW) /      0.013 (MB)
	Size of irrep 1 of <ia|bc> integrals:      0.000 (MW) /      0.004 (MB)
	Size of irrep 2 of <ia|bc> integrals:      0.001 (MW) /      0.007 (MB)
	Size of irrep 3 of <ia|bc> integrals:      0.001 (MW) /      0.007 (MB)
	Size of irrep 4 of <ia|bc> integrals:      0.000 (MW) /      0.004 (MB)
	Size of irrep 5 of <ia|bc> integrals:      0.002 (MW) /      0.013 (MB)
	Size of irrep 6 of <ia|bc> integrals:      0.001 (MW) /      0.007 (MB)
	Size of irrep 7 of <ia|bc> integrals:      0.001 (MW) /      0.007 (MB)
	Total:                                     0.008 (MW) /      0.061 (MB)

	Size of irrep 0 of <Ia|Bc> integrals:      0.002 (MW) /      0.013 (MB)
	Size of irrep 1 of <Ia|Bc> integrals:      0.000 (MW) /      0.004 (MB)
	Size of irrep 2 of <Ia|Bc> integrals:      0.001 (MW) /      0.007 (MB)
	Size of irrep 3 of <Ia|Bc> integrals:      0.001 (MW) /      0.007 (MB)
	Size of irrep 4 of <Ia|Bc> integrals:      0.000 (MW) /      0.004 (MB)
	Size of irrep 5 of <Ia|Bc> integrals:      0.002 (MW) /      0.013 (MB)
	Size of irrep 6 of <Ia|Bc> integrals:      0.001 (MW) /      0.007 (MB)
	Size of irrep 7 of <Ia|Bc> integrals:      0.001 (MW) /      0.007 (MB)
	Total:                                     0.008 (MW) /      0.061 (MB)

	Size of irrep 0 of <iA|bC> integrals:      0.002 (MW) /      0.013 (MB)
	Size of irrep 1 of <iA|bC> integrals:      0.000 (MW) /      0.004 (MB)
	Size of irrep 2 of <iA|bC> integrals:      0.001 (MW) /      0.007 (MB)
	Size of irrep 3 of <iA|bC> integrals:      0.001 (MW) /      0.007 (MB)
	Size of irrep 4 of <iA|bC> integrals:      0.000 (MW) /      0.004 (MB)
	Size of irrep 5 of <iA|bC> integrals:      0.002 (MW) /      0.013 (MB)
	Size of irrep 6 of <iA|bC> integrals:      0.001 (MW) /      0.007 (MB)
	Size of irrep 7 of <iA|bC> integrals:      0.001 (MW) /      0.007 (MB)
	Total:                                     0.008 (MW) /      0.061 (MB)

	Size of irrep 0 of tIjAb amplitudes:       0.001 (MW) /      0.009 (MB)
	Size of irrep 1 of tIjAb amplitudes:       0.000 (MW) /      0.001 (MB)
	Size of irrep 2 of tIjAb amplitudes:       0.000 (MW) /      0.004 (MB)
	Size of irrep 3 of tIjAb amplitudes:       0.000 (MW) /      0.004 (MB)
	Size of irrep 4 of tIjAb amplitudes:       0.000 (MW) /      0.001 (MB)
	Size of irrep 5 of tIjAb amplitudes:       0.001 (MW) /      0.009 (MB)
	Size of irrep 6 of tIjAb amplitudes:       0.000 (MW) /      0.004 (MB)
	Size of irrep 7 of tIjAb amplitudes:       0.000 (MW) /      0.004 (MB)
	Total:                                     0.004 (MW) /      0.035 (MB)


	Sorting File: A <IJ|KL> nbuckets = 1
	Sorting File: B <AB|CD> nbuckets = 1
	Sorting File: C <IA|JB> nbuckets = 1
	Sorting File: D <IJ|AB> nbuckets = 1
	Sorting File: E <AI|JK> nbuckets = 1
	Sorting File: F <IA|BC> nbuckets = 1
	Sorting File: F <AI|BC> nbuckets = 1
	Sorting File: A <ij|kl> nbuckets = 1
	Sorting File: B <ab|cd> nbuckets = 1
	Sorting File: C <ia|jb> nbuckets = 1
	Sorting File: D <ij|ab> nbuckets = 1
	Sorting File: E <ai|jk> nbuckets = 1
	Sorting File: F <ia|bc> nbuckets = 1
	Sorting File: F <ai|bc> nbuckets = 1
	Sorting File: A <Ij|Kl> nbuckets = 1
	Sorting File: B <Ab|Cd> nbuckets = 1
	Sorting File: C <Ia|Jb> nbuckets = 1
	Sorting File: C <Ai|Bj> nbuckets = 1
	Sorting File: D <Ij|Ab> nbuckets = 1
	Sorting File: E <Ai|Jk> nbuckets = 1
	Sorting File: E <Ij|Ka> nbuckets = 1
	Sorting File: F <Ia|Bc> nbuckets = 1
	Sorting File: F <aI|bC> nbuckets = 1
	Sorting File: F <Ab|Ci> nbuckets = 1
	Sorting File: F <Ai|Bc> nbuckets = 1
	One-electron energy          =   -396.82483550128273
	Two-electron (AA) energy     =     24.94996337123288
	Two-electron (BB) energy     =     24.94996337123288
	Two-electron (AB) energy     =     74.15101473798958
	Two-electron energy          =    124.05094148045534
	Frozen-core energy (transqt) =      0.00000000000000
	Reference energy             =   -256.97755943605137

*** tstop() called on cx1-15-5-2.cx1.hpc.ic.ac.uk at Thu Dec  5 16:11:06 2013
Module time:
	user time   =       0.10 seconds =       0.00 minutes
	system time =       0.16 seconds =       0.00 minutes
	total time  =         10 seconds =       0.17 minutes
Total time:
	user time   =      22.18 seconds =       0.37 minutes
	system time =      18.08 seconds =       0.30 minutes
	total time  =       1272 seconds =      21.20 minutes

*** tstart() called on cx1-15-5-2.cx1.hpc.ic.ac.uk
*** at Thu Dec  5 16:11:06 2013

			**************************
			*                        *
			*        CCENERGY        *
			*                        *
			**************************

	Nuclear Rep. energy (chkpt)   =   15.796334584776117
	SCF energy          (chkpt)   = -256.977559436051308
	Reference energy    (file100) = -256.977559436051365

	Input parameters:
	-----------------
	Wave function   =   CCSD_T
	Reference wfn   =     UHF
	Memory (Mbytes) =     2000.0
	Maxiter         =     50
	R_Convergence   =     1.0e-07
	E_Convergence   =     1.0e-06
	Restart         =     No
	DIIS            =     Yes
	AO Basis        =     NONE
	ABCD            =     NEW
	Cache Level     =     2
	Cache Type      =     LRU
	Print Level     =     1
	Num. of threads =     1
	# Amps to Print =     10
	Print MP2 Amps? =     No
	Analyze T2 Amps =     No
	Print Pair Ener =     No
	Local CC        =     No
	SCS-MP2         =     False
	SCSN-MP2        =     False
	SCS-CCSD        =     False

	            Solving CC Amplitude Equations
	            ------------------------------
  Iter             Energy              RMS        T1Diag      D1Diag    New D1Diag    D2Diag
  ----     ---------------------    ---------   ----------  ----------  ----------   --------
     0        -0.375147479304511    1.672e-08    0.000000    0.000000    0.000000    0.000000
     1        -0.378561045456138    2.403e-02    0.003251    0.000000    0.000000    0.000000
     2        -0.381277378682435    5.152e-03    0.002913    0.000000    0.000000    0.000000
     3        -0.381749307335637    1.404e-03    0.003004    0.000000    0.000000    0.000000
     4        -0.381735204306038    1.254e-04    0.003002    0.000000    0.000000    0.000000
     5        -0.381735489601826    7.463e-06    0.003001    0.000000    0.000000    0.000000
     6        -0.381735501003729    1.319e-06    0.003001    0.000000    0.000000    0.000000
     7        -0.381735497354134    1.993e-07    0.003001    0.000000    0.000000    0.000000
     8        -0.381735496506798    1.657e-08    0.003001    0.000000    0.000000    0.000000

	Iterations converged.


	Largest TIA Amplitudes:
	          2   0        -0.0036989838
	          8  14        -0.0036157685
	          9  16        -0.0036157685
	          3   5        -0.0036034864
	          4   7        -0.0036034864
	          7  10         0.0035219105
	          1   1        -0.0024370813
	          6  11        -0.0024313850
	          0   1         0.0001157631
	          5  11         0.0001157499

	Largest Tia Amplitudes:
	          2   0        -0.0036989838
	          8  14        -0.0036157685
	          9  16        -0.0036157685
	          3   5        -0.0036034864
	          4   7        -0.0036034864
	          7  10         0.0035219105
	          1   1        -0.0024370813
	          6  11        -0.0024313850
	          0   1         0.0001157631
	          5  11         0.0001157499

	Largest TIJAB Amplitudes:
	  7   4  14   0         0.0116916109
	  7   3  16   0         0.0116916109
	  9   7   5   0        -0.0116612562
	  8   7   7   0        -0.0116612562
	  3   2   5   0        -0.0116199913
	  4   2   7   0        -0.0116199913
	  8   2  14   0        -0.0116047148
	  9   2  16   0        -0.0116047148
	  4   3  16  14         0.0116021332
	  8   3  14   5        -0.0115962951

	Largest Tijab Amplitudes:
	  7   4  14   0         0.0116916109
	  7   3  16   0         0.0116916109
	  9   7   5   0        -0.0116612562
	  8   7   7   0        -0.0116612562
	  3   2   5   0        -0.0116199913
	  4   2   7   0        -0.0116199913
	  8   2  14   0        -0.0116047148
	  9   2  16   0        -0.0116047148
	  4   3  16  14         0.0116021332
	  8   3  14   5        -0.0115962951

	Largest TIjAb Amplitudes:
	  7   7   0   0        -0.0212551456
	  2   2   0   0        -0.0211820828
	  2   7   0  10         0.0210637059
	  7   2  10   0         0.0210637059
	  8   8  14  14        -0.0210612497
	  9   9  16  16        -0.0210612497
	  3   3  16  16        -0.0210554042
	  4   4  14  14        -0.0210554042
	  3   9   5  16        -0.0210537927
	  4   8   7  14        -0.0210537927

	SCF energy       (chkpt)              = -256.977559436051308
	Reference energy (file100)            = -256.977559436051365

	Opposite-spin MP2 correlation energy  =   -0.272024624944132
	Same-spin MP2 correlation energy      =   -0.103122854360379
	MP2 correlation energy                =   -0.375147479304511
      * MP2 total energy                      = -257.352706915355895

	Opposite-spin CCSD correlation energy =   -0.286941762376820
	Same-spin CCSD correlation energy     =   -0.094793734140839
	CCSD correlation energy               =   -0.381735496506798
      * CCSD total energy                     = -257.359294932558157


*** tstop() called on cx1-15-5-2.cx1.hpc.ic.ac.uk at Thu Dec  5 16:11:58 2013
Module time:
	user time   =       0.37 seconds =       0.01 minutes
	system time =       0.56 seconds =       0.01 minutes
	total time  =         52 seconds =       0.87 minutes
Total time:
	user time   =      22.55 seconds =       0.38 minutes
	system time =      18.64 seconds =       0.31 minutes
	total time  =       1324 seconds =      22.07 minutes

*** tstart() called on cx1-15-5-2.cx1.hpc.ic.ac.uk
*** at Thu Dec  5 16:11:58 2013

			**************************
			*                        *
			*        CCTRIPLES       *
			*                        *
			**************************


	Wave function   =    CCSD_T
	Reference wfn   =      UHF

	Nuclear Rep. energy (chkpt)   =   15.796334584776117
	SCF energy          (chkpt)   = -256.977559436051308
	Reference energy    (file100) = -256.977559436051365
	CCSD energy         (file100) =   -0.381735496506798
	Total CCSD energy   (file100) = -257.359294932558157

	Number of ijk index combinations:
	Spin Case AAA: 120
	Spin Case BBB: 120
	Spin Case AAB: 450
	Spin Case ABB: 450
	AAA (T) energy                =   -0.000050522157444
	BBB (T) energy                =   -0.000050522157444
	AAB (T) energy                =   -0.001005594791914
	ABB (T) energy                =   -0.001005594791914
	(T) energy                    =   -0.002112233898716
      * CCSD(T) total energy          = -257.361407166456900


*** tstop() called on cx1-15-5-2.cx1.hpc.ic.ac.uk at Thu Dec  5 16:12:03 2013
Module time:
	user time   =       0.32 seconds =       0.01 minutes
	system time =       0.14 seconds =       0.00 minutes
	total time  =          5 seconds =       0.08 minutes
Total time:
	user time   =      22.87 seconds =       0.38 minutes
	system time =      18.78 seconds =       0.31 minutes
	total time  =       1329 seconds =      22.15 minutes

*** PSI4 exiting successfully. Buy a developer a beer!
